<?xml version="1.0"?>
<VTKFile type="UnstructuredGrid" version="0.1" byte_order="LittleEndian" compressor="vtkZLibDataCompressor">
  <UnstructuredGrid>
    <Piece NumberOfPoints="12" NumberOfCells="12">
      <PointData>
        <DataArray type="Float64" Name="Dilatation" format="ascii" RangeMin="-0.017659222774" RangeMax="-0.015765902835">
          -0.017659222774 -0.015765902835 -0.017659222774 -0.017659222774 -0.015765902835 -0.017659222774
          -0.017659222774 -0.015765902835 -0.017659222774 -0.017659222774 -0.015765902835 -0.017659222774
        </DataArray>
        <DataArray type="Float64" Name="Displacement" NumberOfComponents="3" format="ascii" RangeMin="0" RangeMax="0.076061091647">
          0 0 0 -0.0377922215 -0.0075268321589 -0.0075268321589
          -0.075584443001 6.9577109823e-17 -7.7235265698e-17 0 0.0060117234937 0
          -0.0377922215 0.013538555653 -0.0075268321589 -0.075584443001 0.0060117234937 1.0664224451e-16
          0 0 0.0060117234937 -0.0377922215 -0.0075268321589 0.013538555653
          -0.075584443001 -9.6435923757e-17 0.0060117234937 0 0.0060117234937 0.0060117234937
          -0.0377922215 0.013538555653 0.013538555653 -0.075584443001 0.0060117234937 0.0060117234937
        </DataArray>
        <DataArray type="Float64" Name="Force_Density" NumberOfComponents="3" format="ascii" RangeMin="3.245493433e-05" RangeMax="9958049691.1">
          -9958049691.1 -1.7911195755e-05 -4.2796134949e-05 -2.8669834137e-05 1.6570091248e-05 4.0948390961e-05
          9958049691.1 -3.719329834e-05 7.426738739e-05 -9958049691.1 6.2036328018e-05 -6.365776062e-05
          -8.1777572632e-05 -1.7369166017e-05 1.8835067749e-05 9958049691.1 1.2237153813e-05 -1.1682510376e-05
          -9958049691.1 -4.3034553528e-05 4.1902065277e-05 1.9073486328e-05 -2.6226043701e-05 1.3113021851e-06
          9958049691.1 5.5193901062e-05 -9.7310595349e-05 -9958049691.1 4.1656196117e-05 4.2416155338e-05
          2.4318695068e-05 -3.6101788282e-05 -3.632158041e-05 9958049691.1 -9.9912285805e-06 3.2316893339e-05
        </DataArray>
        <DataArray type="Int32" Name="ID" format="ascii" RangeMin="0" RangeMax="11">
          0 1 2 3 4 5
          6 7 8 9 10 11
        </DataArray>
        <DataArray type="Int32" Name="Proc_Num" format="ascii" RangeMin="0" RangeMax="0">
          0 0 0 0 0 0
          0 0 0 0 0 0
        </DataArray>
        <DataArray type="Float64" Name="Velocity" NumberOfComponents="3" format="ascii" RangeMin="0" RangeMax="0">
          0 0 0 0 0 0
          0 0 0 0 0 0
          0 0 0 0 0 0
          0 0 0 0 0 0
          0 0 0 0 0 0
          0 0 0 0 0 0
        </DataArray>
        <DataArray type="Float64" Name="Weighted_Volume" format="ascii" RangeMin="12" RangeMax="20">
          12 20 12 12 20 12
          12 20 12 12 20 12
        </DataArray>
      </PointData>
      <CellData>
      </CellData>
      <Points>
        <DataArray type="Float64" Name="Points" NumberOfComponents="3" format="ascii" RangeMin="0.70710678119" RangeMax="1.2247448714">
          -1 -0.5 -0.5 0 -0.5 -0.5
          1 -0.5 -0.5 -1 0.5 -0.5
          0 0.5 -0.5 1 0.5 -0.5
          -1 -0.5 0.5 0 -0.5 0.5
          1 -0.5 0.5 -1 0.5 0.5
          0 0.5 0.5 1 0.5 0.5
        </DataArray>
      </Points>
      <Cells>
        <DataArray type="Int64" Name="connectivity" format="ascii" RangeMin="0" RangeMax="11">
          0 1 2 3 4 5
          6 7 8 9 10 11
        </DataArray>
        <DataArray type="Int64" Name="offsets" format="ascii" RangeMin="1" RangeMax="12">
          1 2 3 4 5 6
          7 8 9 10 11 12
        </DataArray>
        <DataArray type="UInt8" Name="types" format="ascii" RangeMin="1" RangeMax="1">
          1 1 1 1 1 1
          1 1 1 1 1 1
        </DataArray>
      </Cells>
    </Piece>
  </UnstructuredGrid>
</VTKFile>
