<?xml version="1.0"?>
<VTKFile type="UnstructuredGrid" version="0.1" byte_order="LittleEndian" compressor="vtkZLibDataCompressor">
  <UnstructuredGrid>
    <Piece NumberOfPoints="12" NumberOfCells="12">
      <PointData>
        <DataArray type="Float64" Name="Dilatation" format="ascii" RangeMin="-0.022614208671" RangeMax="-0.019994415065">
          -0.022614208671 -0.019994415065 -0.022614208671 -0.022614208671 -0.019994415065 -0.022614208671
          -0.022614208671 -0.019994415065 -0.022614208671 -0.022614208671 -0.019994415065 -0.022614208671
        </DataArray>
        <DataArray type="Float64" Name="Displacement" NumberOfComponents="3" format="ascii" RangeMin="0" RangeMax="0.097834472268">
          0 0 0 -0.048618496008 -0.0097691213778 -0.0097691213778
          -0.097236992016 1.8900333424e-16 -2.5776139624e-17 0 0.0076338505219 0
          -0.048618496008 0.0174029719 -0.0097691213778 -0.097236992016 0.0076338505219 2.4644536727e-17
          0 0 0.0076338505219 -0.048618496008 -0.0097691213778 0.0174029719
          -0.097236992016 -9.8892868637e-17 0.0076338505219 0 0.0076338505219 0.0076338505219
          -0.048618496008 0.0174029719 0.0174029719 -0.097236992016 0.0076338505219 0.0076338505219
        </DataArray>
        <DataArray type="Float64" Name="Force_Density" NumberOfComponents="3" format="ascii" RangeMin="2.8168287397e-05" RangeMax="12711213591">
          -12711213591 3.7103891373e-05 -6.5267086029e-06 2.9802322388e-07 1.9311904907e-05 2.0503997803e-05
          12711213591 -8.1777572632e-05 -1.3828277588e-05 -12711213591 -3.5747885704e-05 3.5405158997e-05
          -8.1539154053e-05 2.4735927582e-06 -4.0531158447e-06 12711213591 7.8751606423e-06 1.0967254639e-05
          -12711213591 3.719329834e-05 6.5099447966e-06 0 2.0742416382e-05 -2.1761283278e-05
          12711213591 1.0967254639e-05 -3.5820477341e-05 -12711213591 -3.5669654608e-05 -3.6645680666e-05
          -0.00010108947754 2.4184584618e-05 2.5190412998e-05 12711213591 -6.1392784119e-06 1.9997358322e-05
        </DataArray>
        <DataArray type="Int32" Name="ID" format="ascii" RangeMin="0" RangeMax="11">
          0 1 2 3 4 5
          6 7 8 9 10 11
        </DataArray>
        <DataArray type="Int32" Name="Proc_Num" format="ascii" RangeMin="0" RangeMax="0">
          0 0 0 0 0 0
          0 0 0 0 0 0
        </DataArray>
        <DataArray type="Float64" Name="Velocity" NumberOfComponents="3" format="ascii" RangeMin="0" RangeMax="0">
          0 0 0 0 0 0
          0 0 0 0 0 0
          0 0 0 0 0 0
          0 0 0 0 0 0
          0 0 0 0 0 0
          0 0 0 0 0 0
        </DataArray>
        <DataArray type="Float64" Name="Weighted_Volume" format="ascii" RangeMin="12" RangeMax="20">
          12 20 12 12 20 12
          12 20 12 12 20 12
        </DataArray>
      </PointData>
      <CellData>
      </CellData>
      <Points>
        <DataArray type="Float64" Name="Points" NumberOfComponents="3" format="ascii" RangeMin="0.70710678119" RangeMax="1.2247448714">
          -1 -0.5 -0.5 0 -0.5 -0.5
          1 -0.5 -0.5 -1 0.5 -0.5
          0 0.5 -0.5 1 0.5 -0.5
          -1 -0.5 0.5 0 -0.5 0.5
          1 -0.5 0.5 -1 0.5 0.5
          0 0.5 0.5 1 0.5 0.5
        </DataArray>
      </Points>
      <Cells>
        <DataArray type="Int64" Name="connectivity" format="ascii" RangeMin="0" RangeMax="11">
          0 1 2 3 4 5
          6 7 8 9 10 11
        </DataArray>
        <DataArray type="Int64" Name="offsets" format="ascii" RangeMin="1" RangeMax="12">
          1 2 3 4 5 6
          7 8 9 10 11 12
        </DataArray>
        <DataArray type="UInt8" Name="types" format="ascii" RangeMin="1" RangeMax="1">
          1 1 1 1 1 1
          1 1 1 1 1 1
        </DataArray>
      </Cells>
    </Piece>
  </UnstructuredGrid>
</VTKFile>
