<?xml version="1.0"?>
<VTKFile type="UnstructuredGrid" version="0.1" byte_order="LittleEndian" compressor="vtkZLibDataCompressor">
  <UnstructuredGrid>
    <Piece NumberOfPoints="12" NumberOfCells="12">
      <PointData>
        <DataArray type="Float64" Name="Dilatation" format="ascii" RangeMin="-0.017764064899" RangeMax="-0.01585632262">
          -0.017764064899 -0.01585632262 -0.017764064899 -0.017764064899 -0.01585632262 -0.017764064899
          -0.017764064899 -0.01585632262 -0.017764064899 -0.017764064899 -0.01585632262 -0.017764064899
        </DataArray>
        <DataArray type="Float64" Name="Displacement" NumberOfComponents="3" format="ascii" RangeMin="0" RangeMax="0.076519865414">
          0 0 0 -0.038020298238 -0.007573654125 -0.007573654125
          -0.076040596477 -6.3366068459e-17 -5.5244335145e-17 0 0.0060463828189 0
          -0.038020298238 0.013620036944 -0.007573654125 -0.076040596477 0.0060463828189 -4.822273928e-17
          0 0 0.0060463828189 -0.038020298238 -0.007573654125 0.013620036944
          -0.076040596477 -1.7072387523e-17 0.0060463828189 0 0.0060463828189 0.0060463828189
          -0.038020298238 0.013620036944 0.013620036944 -0.076040596477 0.0060463828189 0.0060463828189
        </DataArray>
        <DataArray type="Float64" Name="Force_Density" NumberOfComponents="3" format="ascii" RangeMin="4.6086079406e-05" RangeMax="10016508049">
          -10016508049 7.5101852417e-06 -3.6269426346e-05 -5.2332878113e-05 0.00010752677917 5.8948993683e-05
          10016508049 7.7486038208e-06 7.6293945312e-06 -10016508049 -5.5305659771e-05 -3.6478042603e-05
          3.8385391235e-05 5.9520825744e-05 -6.4134597778e-05 10016508049 -6.0496580177e-05 -5.4836273193e-06
          -10016508049 -5.2332878113e-05 7.6997093856e-05 3.4332275391e-05 -2.2172927856e-05 2.1297484636e-05
          10016508049 -6.4373016357e-06 -6.0764801078e-05 -10016508049 1.6648322344e-05 1.5649944544e-05
          -5.7220458984e-05 -3.8612633944e-05 -1.3753771782e-05 10016508049 3.5908073187e-05 3.6176294088e-05
        </DataArray>
        <DataArray type="Int32" Name="ID" format="ascii" RangeMin="0" RangeMax="11">
          0 1 2 3 4 5
          6 7 8 9 10 11
        </DataArray>
        <DataArray type="Int32" Name="Proc_Num" format="ascii" RangeMin="0" RangeMax="0">
          0 0 0 0 0 0
          0 0 0 0 0 0
        </DataArray>
        <DataArray type="Float64" Name="Velocity" NumberOfComponents="3" format="ascii" RangeMin="0" RangeMax="0">
          0 0 0 0 0 0
          0 0 0 0 0 0
          0 0 0 0 0 0
          0 0 0 0 0 0
          0 0 0 0 0 0
          0 0 0 0 0 0
        </DataArray>
        <DataArray type="Float64" Name="Weighted_Volume" format="ascii" RangeMin="12" RangeMax="20">
          12 20 12 12 20 12
          12 20 12 12 20 12
        </DataArray>
      </PointData>
      <CellData>
      </CellData>
      <Points>
        <DataArray type="Float64" Name="Points" NumberOfComponents="3" format="ascii" RangeMin="0.70710678119" RangeMax="1.2247448714">
          -1 -0.5 -0.5 0 -0.5 -0.5
          1 -0.5 -0.5 -1 0.5 -0.5
          0 0.5 -0.5 1 0.5 -0.5
          -1 -0.5 0.5 0 -0.5 0.5
          1 -0.5 0.5 -1 0.5 0.5
          0 0.5 0.5 1 0.5 0.5
        </DataArray>
      </Points>
      <Cells>
        <DataArray type="Int64" Name="connectivity" format="ascii" RangeMin="0" RangeMax="11">
          0 1 2 3 4 5
          6 7 8 9 10 11
        </DataArray>
        <DataArray type="Int64" Name="offsets" format="ascii" RangeMin="1" RangeMax="12">
          1 2 3 4 5 6
          7 8 9 10 11 12
        </DataArray>
        <DataArray type="UInt8" Name="types" format="ascii" RangeMin="1" RangeMax="1">
          1 1 1 1 1 1
          1 1 1 1 1 1
        </DataArray>
      </Cells>
    </Piece>
  </UnstructuredGrid>
</VTKFile>
