<?xml version="1.0"?>
<VTKFile type="UnstructuredGrid" version="0.1" byte_order="LittleEndian" compressor="vtkZLibDataCompressor">
  <UnstructuredGrid>
    <Piece NumberOfPoints="12" NumberOfCells="12">
      <PointData>
        <DataArray type="Float64" Name="Dilatation" format="ascii" RangeMin="-0.019879733205" RangeMax="-0.017672282515">
          -0.019879733205 -0.017672282515 -0.019879733205 -0.019879733205 -0.017672282515 -0.019879733205
          -0.019879733205 -0.017672282515 -0.019879733205 -0.019879733205 -0.017672282515 -0.019879733205
        </DataArray>
        <DataArray type="Float64" Name="Displacement" NumberOfComponents="3" format="ascii" RangeMin="0" RangeMax="0.08579558132">
          0 0 0 -0.042632008233 -0.0085242045364 -0.0085242045364
          -0.085264016465 -8.6195223495e-17 -1.2027645189e-16 0 0.0067427468544 0
          -0.042632008233 0.015266951391 -0.0085242045364 -0.085264016465 0.0067427468544 -1.1145455221e-16
          0 0 0.0067427468544 -0.042632008233 -0.0085242045364 0.015266951391
          -0.085264016465 -2.194448014e-16 0.0067427468544 0 0.0067427468544 0.0067427468544
          -0.042632008233 0.015266951391 0.015266951391 -0.085264016465 0.0067427468544 0.0067427468544
        </DataArray>
        <DataArray type="Float64" Name="Force_Density" NumberOfComponents="3" format="ascii" RangeMin="3.6603619721e-05" RangeMax="11194311904">
          -11194311904 -1.9073486328e-05 5.2750110626e-06 -2.3663043976e-05 -3.0100345612e-05 -5.2988529205e-05
          11194311904 3.5166740417e-05 3.4093856812e-05 -11194311904 -3.3738091588e-05 -7.8678131104e-06
          3.1709671021e-05 1.3215467334e-05 1.2636184692e-05 11194311904 -3.5821172258e-05 3.4332275391e-05
          -11194311904 -3.1590461731e-05 -3.6081299186e-05 -4.768371582e-07 -3.8385391235e-05 -8.488073945e-06
          11194311904 3.3974647522e-05 -1.2474278529e-05 -11194311904 8.2802027464e-05 8.0652534962e-05
          2.384185791e-05 1.5661120415e-05 -3.2290816307e-05 11194311904 8.5905194283e-06 -1.7248094082e-05
        </DataArray>
        <DataArray type="Int32" Name="ID" format="ascii" RangeMin="0" RangeMax="11">
          0 1 2 3 4 5
          6 7 8 9 10 11
        </DataArray>
        <DataArray type="Int32" Name="Proc_Num" format="ascii" RangeMin="0" RangeMax="0">
          0 0 0 0 0 0
          0 0 0 0 0 0
        </DataArray>
        <DataArray type="Float64" Name="Velocity" NumberOfComponents="3" format="ascii" RangeMin="0" RangeMax="0">
          0 0 0 0 0 0
          0 0 0 0 0 0
          0 0 0 0 0 0
          0 0 0 0 0 0
          0 0 0 0 0 0
          0 0 0 0 0 0
        </DataArray>
        <DataArray type="Float64" Name="Weighted_Volume" format="ascii" RangeMin="12" RangeMax="20">
          12 20 12 12 20 12
          12 20 12 12 20 12
        </DataArray>
      </PointData>
      <CellData>
      </CellData>
      <Points>
        <DataArray type="Float64" Name="Points" NumberOfComponents="3" format="ascii" RangeMin="0.70710678119" RangeMax="1.2247448714">
          -1 -0.5 -0.5 0 -0.5 -0.5
          1 -0.5 -0.5 -1 0.5 -0.5
          0 0.5 -0.5 1 0.5 -0.5
          -1 -0.5 0.5 0 -0.5 0.5
          1 -0.5 0.5 -1 0.5 0.5
          0 0.5 0.5 1 0.5 0.5
        </DataArray>
      </Points>
      <Cells>
        <DataArray type="Int64" Name="connectivity" format="ascii" RangeMin="0" RangeMax="11">
          0 1 2 3 4 5
          6 7 8 9 10 11
        </DataArray>
        <DataArray type="Int64" Name="offsets" format="ascii" RangeMin="1" RangeMax="12">
          1 2 3 4 5 6
          7 8 9 10 11 12
        </DataArray>
        <DataArray type="UInt8" Name="types" format="ascii" RangeMin="1" RangeMax="1">
          1 1 1 1 1 1
          1 1 1 1 1 1
        </DataArray>
      </Cells>
    </Piece>
  </UnstructuredGrid>
</VTKFile>
