<?xml version="1.0"?>
<VTKFile type="UnstructuredGrid" version="0.1" byte_order="LittleEndian" compressor="vtkZLibDataCompressor">
  <UnstructuredGrid>
    <Piece NumberOfPoints="12" NumberOfCells="12">
      <PointData>
        <DataArray type="Float64" Name="Dilatation" format="ascii" RangeMin="-0.020757421953" RangeMax="-0.018420726518">
          -0.020757421953 -0.018420726518 -0.020757421953 -0.020757421953 -0.018420726518 -0.020757421953
          -0.020757421953 -0.018420726518 -0.020757421953 -0.020757421953 -0.018420726518 -0.020757421953
        </DataArray>
        <DataArray type="Float64" Name="Displacement" NumberOfComponents="3" format="ascii" RangeMin="0" RangeMax="0.089653583008">
          0 0 0 -0.044550326183 -0.0089217612943 -0.0089217612943
          -0.089100652367 -4.392862073e-17 9.2845168449e-17 0 0.0070298895466 0
          -0.044550326183 0.015951650841 -0.0089217612943 -0.089100652367 0.0070298895466 -1.8825042043e-16
          0 0 0.0070298895466 -0.044550326183 -0.0089217612943 0.015951650841
          -0.089100652367 1.7447139907e-16 0.0070298895466 0 0.0070298895466 0.0070298895466
          -0.044550326183 0.015951650841 0.015951650841 -0.089100652367 0.0070298895466 0.0070298895466
        </DataArray>
        <DataArray type="Float64" Name="Force_Density" NumberOfComponents="3" format="ascii" RangeMin="7.1039907308e-05" RangeMax="11681867892">
          -11681867892 1.2993812561e-05 -5.6624412537e-06 -4.8339366913e-05 0.00010269880295 7.963180542e-05
          11681867892 -4.8518180847e-05 -5.841255188e-06 -11681867892 -0.0001364601776 -2.1815299988e-05
          5.7220458984e-05 4.6420842409e-05 -5.054473877e-05 11681867892 8.3870714785e-06 -8.8214874268e-06
          -11681867892 4.3869018555e-05 -4.4586136937e-05 4.2915344238e-05 -5.2213668823e-05 -2.1878629923e-05
          11681867892 -1.1086463928e-05 -1.5083152866e-05 -11681867892 -8.4713101387e-06 9.9614262581e-06
          -3.3378601074e-05 7.7471137047e-05 7.6860189438e-05 11681867892 -3.3929944038e-05 8.2403421402e-06
        </DataArray>
        <DataArray type="Int32" Name="ID" format="ascii" RangeMin="0" RangeMax="11">
          0 1 2 3 4 5
          6 7 8 9 10 11
        </DataArray>
        <DataArray type="Int32" Name="Proc_Num" format="ascii" RangeMin="0" RangeMax="0">
          0 0 0 0 0 0
          0 0 0 0 0 0
        </DataArray>
        <DataArray type="Float64" Name="Velocity" NumberOfComponents="3" format="ascii" RangeMin="0" RangeMax="0">
          0 0 0 0 0 0
          0 0 0 0 0 0
          0 0 0 0 0 0
          0 0 0 0 0 0
          0 0 0 0 0 0
          0 0 0 0 0 0
        </DataArray>
        <DataArray type="Float64" Name="Weighted_Volume" format="ascii" RangeMin="12" RangeMax="20">
          12 20 12 12 20 12
          12 20 12 12 20 12
        </DataArray>
      </PointData>
      <CellData>
      </CellData>
      <Points>
        <DataArray type="Float64" Name="Points" NumberOfComponents="3" format="ascii" RangeMin="0.70710678119" RangeMax="1.2247448714">
          -1 -0.5 -0.5 0 -0.5 -0.5
          1 -0.5 -0.5 -1 0.5 -0.5
          0 0.5 -0.5 1 0.5 -0.5
          -1 -0.5 0.5 0 -0.5 0.5
          1 -0.5 0.5 -1 0.5 0.5
          0 0.5 0.5 1 0.5 0.5
        </DataArray>
      </Points>
      <Cells>
        <DataArray type="Int64" Name="connectivity" format="ascii" RangeMin="0" RangeMax="11">
          0 1 2 3 4 5
          6 7 8 9 10 11
        </DataArray>
        <DataArray type="Int64" Name="offsets" format="ascii" RangeMin="1" RangeMax="12">
          1 2 3 4 5 6
          7 8 9 10 11 12
        </DataArray>
        <DataArray type="UInt8" Name="types" format="ascii" RangeMin="1" RangeMax="1">
          1 1 1 1 1 1
          1 1 1 1 1 1
        </DataArray>
      </Cells>
    </Piece>
  </UnstructuredGrid>
</VTKFile>
