<?xml version="1.0"?>
<VTKFile type="UnstructuredGrid" version="0.1" byte_order="LittleEndian" compressor="vtkZLibDataCompressor">
  <UnstructuredGrid>
    <Piece NumberOfPoints="12" NumberOfCells="12">
      <PointData>
        <DataArray type="Float64" Name="Dilatation" format="ascii" RangeMin="-0.062914472098" RangeMax="-0.050258902774">
          -0.062914472098 -0.050258902774 -0.062914472098 -0.062914472098 -0.050258902774 -0.062914472098
          -0.062914472098 -0.050258902774 -0.062914472098 -0.062914472098 -0.050258902774 -0.062914472098
        </DataArray>
        <DataArray type="Float64" Name="Displacement" NumberOfComponents="3" format="ascii" RangeMin="0" RangeMax="0.2812767615">
          0 0 0 -0.13998723108 -0.030590538235 -0.030590538235
          -0.27997446216 1.1586424769e-16 3.7986846088e-17 0 0.019116970229 0
          -0.13998723108 0.049707508464 -0.030590538235 -0.27997446216 0.019116970229 1.8313057065e-16
          0 0 0.019116970229 -0.13998723108 -0.030590538235 0.049707508464
          -0.27997446216 -7.4319074825e-17 0.019116970229 0 0.019116970229 0.019116970229
          -0.13998723108 0.049707508464 0.049707508464 -0.27997446216 0.019116970229 0.019116970229
        </DataArray>
        <DataArray type="Float64" Name="Force_Density" NumberOfComponents="3" format="ascii" RangeMin="2.4839909438e-05" RangeMax="34162477543">
          -34162477543 3.7670135498e-05 2.8610229492e-06 -8.3446502686e-07 -2.1576881409e-05 -1.2278556824e-05
          34162477543 4.1007995605e-05 4.8637390137e-05 -34162477543 -1.172721386e-05 1.1444091797e-05
          1.6212463379e-05 -1.3425946236e-05 3.719329834e-05 34162477543 -6.9145163023e-05 7.5578689575e-05
          -34162477543 -1.049041748e-05 4.5284628868e-05 2.1934509277e-05 3.6716461182e-05 -5.0559639931e-05
          34162477543 7.1048736572e-05 -7.4028968811e-05 -34162477543 -5.3644180298e-07 -2.0980834961e-05
          0 -3.6716461182e-05 -4.0411949158e-05 34162477543 -2.2292137146e-05 -2.2411346436e-05
        </DataArray>
        <DataArray type="Int32" Name="ID" format="ascii" RangeMin="0" RangeMax="11">
          0 1 2 3 4 5
          6 7 8 9 10 11
        </DataArray>
        <DataArray type="Int32" Name="Proc_Num" format="ascii" RangeMin="0" RangeMax="0">
          0 0 0 0 0 0
          0 0 0 0 0 0
        </DataArray>
        <DataArray type="Float64" Name="Velocity" NumberOfComponents="3" format="ascii" RangeMin="0" RangeMax="0">
          0 0 0 0 0 0
          0 0 0 0 0 0
          0 0 0 0 0 0
          0 0 0 0 0 0
          0 0 0 0 0 0
          0 0 0 0 0 0
        </DataArray>
        <DataArray type="Float64" Name="Weighted_Volume" format="ascii" RangeMin="12" RangeMax="20">
          12 20 12 12 20 12
          12 20 12 12 20 12
        </DataArray>
      </PointData>
      <CellData>
      </CellData>
      <Points>
        <DataArray type="Float64" Name="Points" NumberOfComponents="3" format="ascii" RangeMin="0.70710678119" RangeMax="1.2247448714">
          -1 -0.5 -0.5 0 -0.5 -0.5
          1 -0.5 -0.5 -1 0.5 -0.5
          0 0.5 -0.5 1 0.5 -0.5
          -1 -0.5 0.5 0 -0.5 0.5
          1 -0.5 0.5 -1 0.5 0.5
          0 0.5 0.5 1 0.5 0.5
        </DataArray>
      </Points>
      <Cells>
        <DataArray type="Int64" Name="connectivity" format="ascii" RangeMin="0" RangeMax="11">
          0 1 2 3 4 5
          6 7 8 9 10 11
        </DataArray>
        <DataArray type="Int64" Name="offsets" format="ascii" RangeMin="1" RangeMax="12">
          1 2 3 4 5 6
          7 8 9 10 11 12
        </DataArray>
        <DataArray type="UInt8" Name="types" format="ascii" RangeMin="1" RangeMax="1">
          1 1 1 1 1 1
          1 1 1 1 1 1
        </DataArray>
      </Cells>
    </Piece>
  </UnstructuredGrid>
</VTKFile>
