<?xml version="1.0"?>
<VTKFile type="UnstructuredGrid" version="0.1" byte_order="LittleEndian" compressor="vtkZLibDataCompressor">
  <UnstructuredGrid>
    <Piece NumberOfPoints="12" NumberOfCells="12">
      <PointData>
        <DataArray type="Float64" Name="Dilatation" format="ascii" RangeMin="-0.02317320673" RangeMax="-0.020465576817">
          -0.02317320673 -0.020465576817 -0.02317320673 -0.02317320673 -0.020465576817 -0.02317320673
          -0.02317320673 -0.020465576817 -0.02317320673 -0.02317320673 -0.020465576817 -0.02317320673
        </DataArray>
        <DataArray type="Float64" Name="Displacement" NumberOfComponents="3" format="ascii" RangeMin="0" RangeMax="0.10030244996">
          0 0 0 -0.04984586669 -0.01002592043 -0.01002592043
          -0.09969173338 3.5831113062e-17 -2.1780951666e-16 0 0.0078147220961 0
          -0.04984586669 0.017840642526 -0.01002592043 -0.09969173338 0.0078147220961 -1.560405835e-16
          0 0 0.0078147220961 -0.04984586669 -0.01002592043 0.017840642526
          -0.09969173338 -2.32157887e-16 0.0078147220961 0 0.0078147220961 0.0078147220961
          -0.04984586669 0.017840642526 0.017840642526 -0.09969173338 0.0078147220961 0.0078147220961
        </DataArray>
        <DataArray type="Float64" Name="Force_Density" NumberOfComponents="3" format="ascii" RangeMin="5.3675150251e-05" RangeMax="13020536713">
          -13020536713 -1.6987323761e-06 8.9406967163e-08 -7.5101852417e-06 5.6564807892e-05 8.0406665802e-05
          13020536713 -4.0650367737e-05 2.7775764465e-05 -13020536713 -4.6636909246e-05 4.9471855164e-05
          -4.5776367188e-05 -3.0742958188e-05 5.4359436035e-05 13020536713 4.5822816461e-05 -2.7418136597e-06
          -13020536713 -1.4424324036e-05 -5.1710754633e-05 -6.0796737671e-05 3.0994415283e-06 -5.5283308029e-05
          13020536713 -8.1062316895e-06 -1.9473604468e-05 -13020536713 2.6542693377e-05 -4.1209161282e-05
          -4.1961669922e-05 3.3043324947e-05 5.3271651268e-06 13020536713 -2.2418797016e-05 -4.6961009502e-05
        </DataArray>
        <DataArray type="Int32" Name="ID" format="ascii" RangeMin="0" RangeMax="11">
          0 1 2 3 4 5
          6 7 8 9 10 11
        </DataArray>
        <DataArray type="Int32" Name="Proc_Num" format="ascii" RangeMin="0" RangeMax="0">
          0 0 0 0 0 0
          0 0 0 0 0 0
        </DataArray>
        <DataArray type="Float64" Name="Velocity" NumberOfComponents="3" format="ascii" RangeMin="0" RangeMax="0">
          0 0 0 0 0 0
          0 0 0 0 0 0
          0 0 0 0 0 0
          0 0 0 0 0 0
          0 0 0 0 0 0
          0 0 0 0 0 0
        </DataArray>
        <DataArray type="Float64" Name="Weighted_Volume" format="ascii" RangeMin="12" RangeMax="20">
          12 20 12 12 20 12
          12 20 12 12 20 12
        </DataArray>
      </PointData>
      <CellData>
      </CellData>
      <Points>
        <DataArray type="Float64" Name="Points" NumberOfComponents="3" format="ascii" RangeMin="0.70710678119" RangeMax="1.2247448714">
          -1 -0.5 -0.5 0 -0.5 -0.5
          1 -0.5 -0.5 -1 0.5 -0.5
          0 0.5 -0.5 1 0.5 -0.5
          -1 -0.5 0.5 0 -0.5 0.5
          1 -0.5 0.5 -1 0.5 0.5
          0 0.5 0.5 1 0.5 0.5
        </DataArray>
      </Points>
      <Cells>
        <DataArray type="Int64" Name="connectivity" format="ascii" RangeMin="0" RangeMax="11">
          0 1 2 3 4 5
          6 7 8 9 10 11
        </DataArray>
        <DataArray type="Int64" Name="offsets" format="ascii" RangeMin="1" RangeMax="12">
          1 2 3 4 5 6
          7 8 9 10 11 12
        </DataArray>
        <DataArray type="UInt8" Name="types" format="ascii" RangeMin="1" RangeMax="1">
          1 1 1 1 1 1
          1 1 1 1 1 1
        </DataArray>
      </Cells>
    </Piece>
  </UnstructuredGrid>
</VTKFile>
