<?xml version="1.0"?>
<VTKFile type="UnstructuredGrid" version="0.1" byte_order="LittleEndian" compressor="vtkZLibDataCompressor">
  <UnstructuredGrid>
    <Piece NumberOfPoints="12" NumberOfCells="12">
      <PointData>
        <DataArray type="Float64" Name="Dilatation" format="ascii" RangeMin="-0.0090136620893" RangeMax="-0.0081758625518">
          -0.0090136620893 -0.0081758625518 -0.0090136620893 -0.0090136620893 -0.0081758625518 -0.0090136620893
          -0.0090136620893 -0.0081758625518 -0.0090136620893 -0.0090136620893 -0.0081758625518 -0.0090136620893
        </DataArray>
        <DataArray type="Float64" Name="Displacement" NumberOfComponents="3" format="ascii" RangeMin="0" RangeMax="0.038520032269">
          0 0 0 -0.019134171547 -0.0037547438993 -0.0037547438993
          -0.038268343093 2.1137518186e-18 -4.7388135567e-17 0 0.0031086012063 0
          -0.019134171547 0.0068633451056 -0.0037547438993 -0.038268343093 0.0031086012063 1.3230650727e-16
          0 0 0.0031086012063 -0.019134171547 -0.0037547438993 0.0068633451056
          -0.038268343093 -2.4114363211e-17 0.0031086012063 0 0.0031086012063 0.0031086012063
          -0.019134171547 0.0068633451056 0.0068633451056 -0.038268343093 0.0031086012063 0.0031086012063
        </DataArray>
        <DataArray type="Float64" Name="Force_Density" NumberOfComponents="3" format="ascii" RangeMin="5.5589283084e-05" RangeMax="5109180643.9">
          -5109180643.9 3.4525990486e-05 3.4064054489e-05 3.6418437958e-05 -9.2595815659e-05 -9.1820955276e-05
          5109180643.9 9.4771385193e-06 5.2511692047e-05 -5109180643.9 2.0831823349e-05 4.6610832214e-05
          -6.5207481384e-05 -1.0527670383e-05 3.6597251892e-05 5109180643.9 2.0727515221e-05 4.1127204895e-06
          -5109180643.9 -2.0682811737e-05 2.055009827e-05 -6.5207481384e-05 1.049041748e-05 -1.032743603e-05
          5109180643.9 -2.0623207092e-05 -2.2353604436e-05 -5109180643.9 5.8384612203e-06 -3.7712045014e-05
          1.6927719116e-05 3.1764619052e-05 -4.2363069952e-05 5109180643.9 1.0709278286e-05 1.035630703e-05
        </DataArray>
        <DataArray type="Int32" Name="ID" format="ascii" RangeMin="0" RangeMax="11">
          0 1 2 3 4 5
          6 7 8 9 10 11
        </DataArray>
        <DataArray type="Int32" Name="Proc_Num" format="ascii" RangeMin="0" RangeMax="0">
          0 0 0 0 0 0
          0 0 0 0 0 0
        </DataArray>
        <DataArray type="Float64" Name="Velocity" NumberOfComponents="3" format="ascii" RangeMin="0" RangeMax="0">
          0 0 0 0 0 0
          0 0 0 0 0 0
          0 0 0 0 0 0
          0 0 0 0 0 0
          0 0 0 0 0 0
          0 0 0 0 0 0
        </DataArray>
        <DataArray type="Float64" Name="Weighted_Volume" format="ascii" RangeMin="12" RangeMax="20">
          12 20 12 12 20 12
          12 20 12 12 20 12
        </DataArray>
      </PointData>
      <CellData>
      </CellData>
      <Points>
        <DataArray type="Float64" Name="Points" NumberOfComponents="3" format="ascii" RangeMin="0.70710678119" RangeMax="1.2247448714">
          -1 -0.5 -0.5 0 -0.5 -0.5
          1 -0.5 -0.5 -1 0.5 -0.5
          0 0.5 -0.5 1 0.5 -0.5
          -1 -0.5 0.5 0 -0.5 0.5
          1 -0.5 0.5 -1 0.5 0.5
          0 0.5 0.5 1 0.5 0.5
        </DataArray>
      </Points>
      <Cells>
        <DataArray type="Int64" Name="connectivity" format="ascii" RangeMin="0" RangeMax="11">
          0 1 2 3 4 5
          6 7 8 9 10 11
        </DataArray>
        <DataArray type="Int64" Name="offsets" format="ascii" RangeMin="1" RangeMax="12">
          1 2 3 4 5 6
          7 8 9 10 11 12
        </DataArray>
        <DataArray type="UInt8" Name="types" format="ascii" RangeMin="1" RangeMax="1">
          1 1 1 1 1 1
          1 1 1 1 1 1
        </DataArray>
      </Cells>
    </Piece>
  </UnstructuredGrid>
</VTKFile>
