<?xml version="1.0"?>
<VTKFile type="UnstructuredGrid" version="0.1" byte_order="LittleEndian" compressor="vtkZLibDataCompressor">
  <UnstructuredGrid>
    <Piece NumberOfPoints="12" NumberOfCells="12">
      <PointData>
        <DataArray type="Float64" Name="Dilatation" format="ascii" RangeMin="-0.0018606284762" RangeMax="-0.0017083253563">
          -0.0018606284762 -0.0017083253563 -0.0018606284762 -0.0018606284762 -0.0017083253563 -0.0018606284762
          -0.0018606284762 -0.0017083253563 -0.0018606284762 -0.0018606284762 -0.0017083253563 -0.0018606284762
        </DataArray>
        <DataArray type="Float64" Name="Displacement" NumberOfComponents="3" format="ascii" RangeMin="0" RangeMax="0.0078991870954">
          0 0 0 -0.0039229547886 -0.00076084102774 -0.00076084102774
          -0.0078459095772 1.5856686999e-16 3.3797428676e-16 0 0.00064763403038 0
          -0.0039229547886 0.0014084750581 -0.00076084102774 -0.0078459095772 0.00064763403038 1.3237650131e-16
          0 0 0.00064763403038 -0.0039229547886 -0.00076084102774 0.0014084750581
          -0.0078459095772 4.8398843827e-17 0.00064763403038 0 0.00064763403038 0.00064763403038
          -0.0039229547886 0.0014084750581 0.0014084750581 -0.0078459095772 0.00064763403038 0.00064763403038
        </DataArray>
        <DataArray type="Float64" Name="Force_Density" NumberOfComponents="3" format="ascii" RangeMin="3.4095412012e-05" RangeMax="1058764752.9">
          -1058764752.9 9.5825642347e-05 9.5825642347e-05 -3.7215650082e-05 6.4186751842e-05 6.4104795456e-05
          1058764752.9 -5.3077936172e-05 -5.2981078625e-05 -1058764752.9 -9.5954004792e-05 9.5784664154e-05
          -4.1663646698e-05 -1.9465354853e-05 -4.7534704208e-06 1058764752.9 -2.2052140541e-05 2.1979212761e-05
          -1058764752.9 9.5784664154e-05 -9.5941868494e-05 -4.1738152504e-05 4.4360756874e-05 -1.9567945856e-05
          1058764752.9 6.5267086029e-05 -2.2054008748e-05 -1058764752.9 -0.00011603988241 -9.145704098e-05
          -2.5629997253e-06 -2.4099543225e-05 -2.3982080165e-05 1058764752.9 -3.4682860132e-05 3.3021555282e-05
        </DataArray>
        <DataArray type="Int32" Name="ID" format="ascii" RangeMin="0" RangeMax="11">
          0 1 2 3 4 5
          6 7 8 9 10 11
        </DataArray>
        <DataArray type="Int32" Name="Proc_Num" format="ascii" RangeMin="0" RangeMax="0">
          0 0 0 0 0 0
          0 0 0 0 0 0
        </DataArray>
        <DataArray type="Float64" Name="Velocity" NumberOfComponents="3" format="ascii" RangeMin="0" RangeMax="0">
          0 0 0 0 0 0
          0 0 0 0 0 0
          0 0 0 0 0 0
          0 0 0 0 0 0
          0 0 0 0 0 0
          0 0 0 0 0 0
        </DataArray>
        <DataArray type="Float64" Name="Weighted_Volume" format="ascii" RangeMin="12" RangeMax="20">
          12 20 12 12 20 12
          12 20 12 12 20 12
        </DataArray>
      </PointData>
      <CellData>
      </CellData>
      <Points>
        <DataArray type="Float64" Name="Points" NumberOfComponents="3" format="ascii" RangeMin="0.70710678119" RangeMax="1.2247448714">
          -1 -0.5 -0.5 0 -0.5 -0.5
          1 -0.5 -0.5 -1 0.5 -0.5
          0 0.5 -0.5 1 0.5 -0.5
          -1 -0.5 0.5 0 -0.5 0.5
          1 -0.5 0.5 -1 0.5 0.5
          0 0.5 0.5 1 0.5 0.5
        </DataArray>
      </Points>
      <Cells>
        <DataArray type="Int64" Name="connectivity" format="ascii" RangeMin="0" RangeMax="11">
          0 1 2 3 4 5
          6 7 8 9 10 11
        </DataArray>
        <DataArray type="Int64" Name="offsets" format="ascii" RangeMin="1" RangeMax="12">
          1 2 3 4 5 6
          7 8 9 10 11 12
        </DataArray>
        <DataArray type="UInt8" Name="types" format="ascii" RangeMin="1" RangeMax="1">
          1 1 1 1 1 1
          1 1 1 1 1 1
        </DataArray>
      </Cells>
    </Piece>
  </UnstructuredGrid>
</VTKFile>
