<?xml version="1.0"?>
<VTKFile type="UnstructuredGrid" version="0.1" byte_order="LittleEndian" compressor="vtkZLibDataCompressor">
  <UnstructuredGrid>
    <Piece NumberOfPoints="12" NumberOfCells="12">
      <PointData>
        <DataArray type="Float64" Name="Dilatation" format="ascii" RangeMin="-0.0072904245347" RangeMax="-0.0066326913457">
          -0.0072904245347 -0.0066326913457 -0.0072904245347 -0.0072904245347 -0.0066326913457 -0.0072904245347
          -0.0072904245347 -0.0066326913457 -0.0072904245347 -0.0072904245347 -0.0066326913457 -0.0072904245347
        </DataArray>
        <DataArray type="Float64" Name="Displacement" NumberOfComponents="3" format="ascii" RangeMin="0" RangeMax="0.031106554727">
          0 0 0 -0.015450849727 -0.0030232768715 -0.0030232768715
          -0.030901699454 1.8534063723e-16 1.1384884692e-16 0 0.0025201902497 0
          -0.015450849727 0.0055434671212 -0.0030232768715 -0.030901699454 0.0025201902497 1.5157192217e-16
          0 0 0.0025201902497 -0.015450849727 -0.0030232768715 0.0055434671212
          -0.030901699454 1.7563399591e-16 0.0025201902497 0 0.0025201902497 0.0025201902497
          -0.015450849727 0.0055434671212 0.0055434671212 -0.030901699454 0.0025201902497 0.0025201902497
        </DataArray>
        <DataArray type="Float64" Name="Force_Density" NumberOfComponents="3" format="ascii" RangeMin="3.4090456989e-05" RangeMax="4136408322">
          -4136408322 6.7934393883e-05 2.4929642677e-05 3.1739473343e-05 9.0897083282e-06 8.4936618805e-06
          4136408322 -6.9439411163e-06 -5.0038099289e-05 -4136408322 3.1008617952e-05 -7.4505805969e-06
          -4.1306018829e-05 -3.3122254536e-05 -1.7046928406e-05 4136408322 -1.776832463e-05 -5.0216913223e-05
          -4136408322 1.7464160919e-05 4.9719819799e-05 -4.118680954e-05 -1.6748905182e-05 -3.2911077142e-05
          4136408322 -6.9737434387e-06 5.0464877859e-05 -4136408322 -2.3644883186e-05 -2.3548025638e-05
          -2.7656555176e-05 -2.7460046113e-05 -2.8451904655e-06 4136408322 7.1749091148e-06 5.0479546189e-05
        </DataArray>
        <DataArray type="Int32" Name="ID" format="ascii" RangeMin="0" RangeMax="11">
          0 1 2 3 4 5
          6 7 8 9 10 11
        </DataArray>
        <DataArray type="Int32" Name="Proc_Num" format="ascii" RangeMin="0" RangeMax="0">
          0 0 0 0 0 0
          0 0 0 0 0 0
        </DataArray>
        <DataArray type="Float64" Name="Velocity" NumberOfComponents="3" format="ascii" RangeMin="0" RangeMax="0">
          0 0 0 0 0 0
          0 0 0 0 0 0
          0 0 0 0 0 0
          0 0 0 0 0 0
          0 0 0 0 0 0
          0 0 0 0 0 0
        </DataArray>
        <DataArray type="Float64" Name="Weighted_Volume" format="ascii" RangeMin="12" RangeMax="20">
          12 20 12 12 20 12
          12 20 12 12 20 12
        </DataArray>
      </PointData>
      <CellData>
      </CellData>
      <Points>
        <DataArray type="Float64" Name="Points" NumberOfComponents="3" format="ascii" RangeMin="0.70710678119" RangeMax="1.2247448714">
          -1 -0.5 -0.5 0 -0.5 -0.5
          1 -0.5 -0.5 -1 0.5 -0.5
          0 0.5 -0.5 1 0.5 -0.5
          -1 -0.5 0.5 0 -0.5 0.5
          1 -0.5 0.5 -1 0.5 0.5
          0 0.5 0.5 1 0.5 0.5
        </DataArray>
      </Points>
      <Cells>
        <DataArray type="Int64" Name="connectivity" format="ascii" RangeMin="0" RangeMax="11">
          0 1 2 3 4 5
          6 7 8 9 10 11
        </DataArray>
        <DataArray type="Int64" Name="offsets" format="ascii" RangeMin="1" RangeMax="12">
          1 2 3 4 5 6
          7 8 9 10 11 12
        </DataArray>
        <DataArray type="UInt8" Name="types" format="ascii" RangeMin="1" RangeMax="1">
          1 1 1 1 1 1
          1 1 1 1 1 1
        </DataArray>
      </Cells>
    </Piece>
  </UnstructuredGrid>
</VTKFile>
