<?xml version="1.0"?>
<VTKFile type="UnstructuredGrid" version="0.1" byte_order="LittleEndian" compressor="vtkZLibDataCompressor">
  <UnstructuredGrid>
    <Piece NumberOfPoints="12" NumberOfCells="12">
      <PointData>
        <DataArray type="Float64" Name="Dilatation" format="ascii" RangeMin="-0.016537794293" RangeMax="-0.014796235988">
          -0.016537794293 -0.014796235988 -0.016537794293 -0.016537794293 -0.014796235988 -0.016537794293
          -0.016537794293 -0.014796235988 -0.016537794293 -0.016537794293 -0.014796235988 -0.016537794293
        </DataArray>
        <DataArray type="Float64" Name="Displacement" NumberOfComponents="3" format="ascii" RangeMin="0" RangeMax="0.071159131957">
          0 0 0 -0.035355339075 -0.0070276609426 -0.0070276609426
          -0.07071067815 -3.8602216325e-17 6.0183596161e-17 0 0.0056401266126 0
          -0.035355339075 0.012667787555 -0.0070276609426 -0.07071067815 0.0056401266126 -1.2145100397e-16
          0 0 0.0056401266126 -0.035355339075 -0.0070276609426 0.012667787555
          -0.07071067815 1.1837193435e-16 0.0056401266126 0 0.0056401266126 0.0056401266126
          -0.035355339075 0.012667787555 0.012667787555 -0.07071067815 0.0056401266126 0.0056401266126
        </DataArray>
        <DataArray type="Float64" Name="Force_Density" NumberOfComponents="3" format="ascii" RangeMin="2.2440602697e-05" RangeMax="9332223702.5">
          -9332223702.5 -2.1755695343e-06 2.2679567337e-05 -8.1062316895e-05 -5.0485134125e-05 -2.5987625122e-05
          9332223702.5 -2.7418136597e-06 -2.7656555176e-05 -9332223702.5 -7.8552402556e-05 1.0371208191e-05
          8.1300735474e-05 6.9045461714e-05 -4.4584274292e-05 9332223702.5 5.2893708457e-05 -2.7775764465e-05
          -9332223702.5 3.2901763916e-05 -3.3622607589e-05 -2.0503997803e-05 -2.384185791e-05 2.4571083486e-05
          9332223702.5 -7.1048736572e-05 2.7895556768e-05 -9332223702.5 -2.8181821108e-06 4.0357932448e-05
          -2.0503997803e-05 6.4708292484e-06 6.4261257648e-06 9332223702.5 7.0687383413e-05 2.7496367693e-05
        </DataArray>
        <DataArray type="Int32" Name="ID" format="ascii" RangeMin="0" RangeMax="11">
          0 1 2 3 4 5
          6 7 8 9 10 11
        </DataArray>
        <DataArray type="Int32" Name="Proc_Num" format="ascii" RangeMin="0" RangeMax="0">
          0 0 0 0 0 0
          0 0 0 0 0 0
        </DataArray>
        <DataArray type="Float64" Name="Velocity" NumberOfComponents="3" format="ascii" RangeMin="0" RangeMax="0">
          0 0 0 0 0 0
          0 0 0 0 0 0
          0 0 0 0 0 0
          0 0 0 0 0 0
          0 0 0 0 0 0
          0 0 0 0 0 0
        </DataArray>
        <DataArray type="Float64" Name="Weighted_Volume" format="ascii" RangeMin="12" RangeMax="20">
          12 20 12 12 20 12
          12 20 12 12 20 12
        </DataArray>
      </PointData>
      <CellData>
      </CellData>
      <Points>
        <DataArray type="Float64" Name="Points" NumberOfComponents="3" format="ascii" RangeMin="0.70710678119" RangeMax="1.2247448714">
          -1 -0.5 -0.5 0 -0.5 -0.5
          1 -0.5 -0.5 -1 0.5 -0.5
          0 0.5 -0.5 1 0.5 -0.5
          -1 -0.5 0.5 0 -0.5 0.5
          1 -0.5 0.5 -1 0.5 0.5
          0 0.5 0.5 1 0.5 0.5
        </DataArray>
      </Points>
      <Cells>
        <DataArray type="Int64" Name="connectivity" format="ascii" RangeMin="0" RangeMax="11">
          0 1 2 3 4 5
          6 7 8 9 10 11
        </DataArray>
        <DataArray type="Int64" Name="offsets" format="ascii" RangeMin="1" RangeMax="12">
          1 2 3 4 5 6
          7 8 9 10 11 12
        </DataArray>
        <DataArray type="UInt8" Name="types" format="ascii" RangeMin="1" RangeMax="1">
          1 1 1 1 1 1
          1 1 1 1 1 1
        </DataArray>
      </Cells>
    </Piece>
  </UnstructuredGrid>
</VTKFile>
