<?xml version="1.0"?>
<VTKFile type="UnstructuredGrid" version="0.1" byte_order="LittleEndian" compressor="vtkZLibDataCompressor">
  <UnstructuredGrid>
    <Piece NumberOfPoints="12" NumberOfCells="12">
      <PointData>
        <DataArray type="Float64" Name="Dilatation" format="ascii" RangeMin="-0.0055168011734" RangeMax="-0.0050343671587">
          -0.0055168011734 -0.0050343671587 -0.0055168011734 -0.0055168011734 -0.0050343671587 -0.0055168011734
          -0.0055168011734 -0.0050343671587 -0.0055168011734 -0.0055168011734 -0.0050343671587 -0.0055168011734
        </DataArray>
        <DataArray type="Float64" Name="Displacement" NumberOfComponents="3" format="ascii" RangeMin="0" RangeMax="0.023500536405">
          0 0 0 -0.011672268113 -0.0022772566635 -0.0022772566635
          -0.023344536226 -1.2873298092e-16 6.7545181064e-17 0 0.0019115229114 0
          -0.011672268113 0.0041887795749 -0.0022772566635 -0.023344536226 0.0019115229114 -1.6306410711e-17
          0 0 0.0019115229114 -0.011672268113 -0.0022772566635 0.0041887795749
          -0.023344536226 6.6173544813e-17 0.0019115229114 0 0.0019115229114 0.0019115229114
          -0.011672268113 0.0041887795749 0.0041887795749 -0.023344536226 0.0019115229114 0.0019115229114
        </DataArray>
        <DataArray type="Float64" Name="Force_Density" NumberOfComponents="3" format="ascii" RangeMin="4.4454946584e-05" RangeMax="3133154014.6">
          -3133154014.6 -4.2125582695e-05 -4.2490661144e-05 3.707408905e-05 3.6105513573e-05 -1.5467405319e-05
          3133154014.6 2.0951032639e-05 -3.6358833313e-06 -3133154014.6 7.2654336691e-05 -9.7781419754e-05
          -6.1750411987e-05 -3.6004115827e-05 -1.4185905457e-05 3133154014.6 -2.1218520007e-05 -2.2143125534e-05
          -3133154014.6 -3.4183263779e-05 5.2744930144e-05 1.2516975403e-05 -1.5199184418e-05 3.9856648073e-05
          3133154014.6 4.4196844101e-05 -5.6609295996e-07 -3133154014.6 -6.7939981818e-07 4.2270170525e-05
          0.00011968612671 3.9113219827e-05 1.4784280211e-05 3133154014.6 -6.3759740442e-05 4.6717468649e-05
        </DataArray>
        <DataArray type="Int32" Name="ID" format="ascii" RangeMin="0" RangeMax="11">
          0 1 2 3 4 5
          6 7 8 9 10 11
        </DataArray>
        <DataArray type="Int32" Name="Proc_Num" format="ascii" RangeMin="0" RangeMax="0">
          0 0 0 0 0 0
          0 0 0 0 0 0
        </DataArray>
        <DataArray type="Float64" Name="Velocity" NumberOfComponents="3" format="ascii" RangeMin="0" RangeMax="6084.8225787">
          0 0 0 3022.8652238 596.81615306 596.81615306
          6045.7304477 8.7309993332e-12 6.0736080111e-11 0 -486.93385989 0
          3022.8652238 -1083.750013 596.81615306 6045.7304477 -486.93385989 -7.3527750278e-11
          0 0 -486.93385989 3022.8652238 596.81615306 -1083.750013
          6045.7304477 1.089975796e-10 -486.93385989 0 -486.93385989 -486.93385989
          3022.8652238 -1083.750013 -1083.750013 6045.7304477 -486.93385989 -486.93385989
        </DataArray>
        <DataArray type="Float64" Name="Weighted_Volume" format="ascii" RangeMin="12" RangeMax="20">
          12 20 12 12 20 12
          12 20 12 12 20 12
        </DataArray>
      </PointData>
      <CellData>
      </CellData>
      <Points>
        <DataArray type="Float64" Name="Points" NumberOfComponents="3" format="ascii" RangeMin="0.70710678119" RangeMax="1.2247448714">
          -1 -0.5 -0.5 0 -0.5 -0.5
          1 -0.5 -0.5 -1 0.5 -0.5
          0 0.5 -0.5 1 0.5 -0.5
          -1 -0.5 0.5 0 -0.5 0.5
          1 -0.5 0.5 -1 0.5 0.5
          0 0.5 0.5 1 0.5 0.5
        </DataArray>
      </Points>
      <Cells>
        <DataArray type="Int64" Name="connectivity" format="ascii" RangeMin="0" RangeMax="11">
          0 1 2 3 4 5
          6 7 8 9 10 11
        </DataArray>
        <DataArray type="Int64" Name="offsets" format="ascii" RangeMin="1" RangeMax="12">
          1 2 3 4 5 6
          7 8 9 10 11 12
        </DataArray>
        <DataArray type="UInt8" Name="types" format="ascii" RangeMin="1" RangeMax="1">
          1 1 1 1 1 1
          1 1 1 1 1 1
        </DataArray>
      </Cells>
    </Piece>
  </UnstructuredGrid>
</VTKFile>
