<?xml version="1.0"?>
<VTKFile type="UnstructuredGrid" version="0.1" byte_order="LittleEndian" compressor="vtkZLibDataCompressor">
  <UnstructuredGrid>
    <Piece NumberOfPoints="12" NumberOfCells="12">
      <PointData>
        <DataArray type="Float64" Name="Dilatation" format="ascii" RangeMin="-0.003703263797" RangeMax="-0.00338976619">
          -0.003703263797 -0.00338976619 -0.003703263797 -0.003703263797 -0.00338976619 -0.003703263797
          -0.003703263797 -0.00338976619 -0.003703263797 -0.003703263797 -0.00338976619 -0.003703263797
        </DataArray>
        <DataArray type="Float64" Name="Displacement" NumberOfComponents="3" format="ascii" RangeMin="0" RangeMax="0.01574882643">
          0 0 0 -0.007821723169 -0.0015215100153 -0.0015215100153
          -0.015643446338 2.1845831559e-16 -2.0436619118e-16 0 0.0012861027533 0
          -0.007821723169 0.0028076127686 -0.0015215100153 -0.015643446338 0.0012861027533 -1.0576913157e-16
          0 0 0.0012861027533 -0.007821723169 -0.0015215100153 0.0028076127686
          -0.015643446338 -1.9196046573e-16 0.0012861027533 0 0.0012861027533 0.0012861027533
          -0.007821723169 0.0028076127686 0.0028076127686 -0.015643446338 0.0012861027533 0.0012861027533
        </DataArray>
        <DataArray type="Float64" Name="Force_Density" NumberOfComponents="3" format="ascii" RangeMin="5.2517799593e-05" RangeMax="2105247187.2">
          -2105247187.2 2.0205974579e-05 2.0742416382e-05 -4.8905611038e-05 -6.6757202148e-06 6.8098306656e-05
          2105247187.2 -1.0177493095e-05 -5.3539872169e-05 -2105247187.2 1.0222953279e-05 3.308057785e-05
          -2.9802322388e-08 4.6728702728e-05 -4.6849250793e-05 2105247187.2 -4.0287310818e-05 8.3521008492e-05
          -2105247187.2 -1.0132789612e-05 -3.8737547584e-05 7.8767538071e-05 2.3633241653e-05 8.1665348262e-07
          2105247187.2 8.824467659e-05 2.2792254997e-05 -2105247187.2 -4.0342798457e-05 -8.3477585576e-05
          2.4318695068e-05 -3.7571880966e-06 4.6396162361e-05 2105247187.2 -7.7603152022e-05 -5.2887713537e-05
        </DataArray>
        <DataArray type="Int32" Name="ID" format="ascii" RangeMin="0" RangeMax="11">
          0 1 2 3 4 5
          6 7 8 9 10 11
        </DataArray>
        <DataArray type="Int32" Name="Proc_Num" format="ascii" RangeMin="0" RangeMax="0">
          0 0 0 0 0 0
          0 0 0 0 0 0
        </DataArray>
        <DataArray type="Float64" Name="Velocity" NumberOfComponents="3" format="ascii" RangeMin="0" RangeMax="0">
          0 0 0 0 0 0
          0 0 0 0 0 0
          0 0 0 0 0 0
          0 0 0 0 0 0
          0 0 0 0 0 0
          0 0 0 0 0 0
        </DataArray>
        <DataArray type="Float64" Name="Weighted_Volume" format="ascii" RangeMin="12" RangeMax="20">
          12 20 12 12 20 12
          12 20 12 12 20 12
        </DataArray>
      </PointData>
      <CellData>
      </CellData>
      <Points>
        <DataArray type="Float64" Name="Points" NumberOfComponents="3" format="ascii" RangeMin="0.70710678119" RangeMax="1.2247448714">
          -1 -0.5 -0.5 0 -0.5 -0.5
          1 -0.5 -0.5 -1 0.5 -0.5
          0 0.5 -0.5 1 0.5 -0.5
          -1 -0.5 0.5 0 -0.5 0.5
          1 -0.5 0.5 -1 0.5 0.5
          0 0.5 0.5 1 0.5 0.5
        </DataArray>
      </Points>
      <Cells>
        <DataArray type="Int64" Name="connectivity" format="ascii" RangeMin="0" RangeMax="11">
          0 1 2 3 4 5
          6 7 8 9 10 11
        </DataArray>
        <DataArray type="Int64" Name="offsets" format="ascii" RangeMin="1" RangeMax="12">
          1 2 3 4 5 6
          7 8 9 10 11 12
        </DataArray>
        <DataArray type="UInt8" Name="types" format="ascii" RangeMin="1" RangeMax="1">
          1 1 1 1 1 1
          1 1 1 1 1 1
        </DataArray>
      </Cells>
    </Piece>
  </UnstructuredGrid>
</VTKFile>
