<?xml version="1.0"?>
<VTKFile type="UnstructuredGrid" version="0.1" byte_order="LittleEndian" compressor="vtkZLibDataCompressor">
  <UnstructuredGrid>
    <Piece NumberOfPoints="12" NumberOfCells="12">
      <PointData>
        <DataArray type="Float64" Name="Dilatation" format="ascii" RangeMin="-0.0054325143176" RangeMax="-0.0049581611522">
          -0.0054325143176 -0.0049581611522 -0.0054325143176 -0.0054325143176 -0.0049581611522 -0.0054325143176
          -0.0054325143176 -0.0049581611522 -0.0054325143176 -0.0054325143176 -0.0049581611522 -0.0054325143176
        </DataArray>
        <DataArray type="Float64" Name="Displacement" NumberOfComponents="3" format="ascii" RangeMin="0" RangeMax="0.023139692831">
          0 0 0 -0.011493015264 -0.0022419748078 -0.0022419748078
          -0.022986030527 -2.9244828052e-17 -1.0516665547e-16 0 0.0018825229008 0
          -0.011493015264 0.0041244977086 -0.0022419748078 -0.022986030527 0.0018825229008 -3.6444051261e-17
          0 0 0.0018825229008 -0.011493015264 -0.0022419748078 0.0041244977086
          -0.022986030527 -1.9831420289e-17 0.0018825229008 0 0.0018825229008 0.0018825229008
          -0.011493015264 0.0041244977086 0.0041244977086 -0.022986030527 0.0018825229008 0.0018825229008
        </DataArray>
        <DataArray type="Float64" Name="Force_Density" NumberOfComponents="3" format="ascii" RangeMin="1.6586591946e-05" RangeMax="3085426508.5">
          -3085426508.5 -2.3044645786e-05 -2.2850930691e-05 -2.9802322388e-08 -1.2010335922e-05 -1.2189149857e-05
          3085426508.5 -2.3007392883e-05 -2.309679985e-05 -3085426508.5 2.3300235625e-05 -2.2977590561e-05
          0 1.1654803529e-05 -1.1801719666e-05 3085426508.5 2.303061774e-05 -2.321600914e-05
          -3085426508.5 -2.3037195206e-05 2.3002212401e-05 -5.9604644775e-08 -1.186132431e-05 1.1989613995e-05
          3085426508.5 -2.3037195206e-05 2.3031199817e-05 -3085426508.5 2.3290747777e-05 2.3008789867e-05
          0 1.1702999473e-05 1.1970289052e-05 3085426508.5 2.3028813303e-05 2.3037660867e-05
        </DataArray>
        <DataArray type="Int32" Name="ID" format="ascii" RangeMin="0" RangeMax="11">
          0 1 2 3 4 5
          6 7 8 9 10 11
        </DataArray>
        <DataArray type="Int32" Name="Proc_Num" format="ascii" RangeMin="0" RangeMax="0">
          0 0 0 0 0 0
          0 0 0 0 0 0
        </DataArray>
        <DataArray type="Float64" Name="Velocity" NumberOfComponents="3" format="ascii" RangeMin="0" RangeMax="0">
          0 0 0 0 0 0
          0 0 0 0 0 0
          0 0 0 0 0 0
          0 0 0 0 0 0
          0 0 0 0 0 0
          0 0 0 0 0 0
        </DataArray>
        <DataArray type="Float64" Name="Weighted_Volume" format="ascii" RangeMin="12" RangeMax="20">
          12 20 12 12 20 12
          12 20 12 12 20 12
        </DataArray>
      </PointData>
      <CellData>
      </CellData>
      <Points>
        <DataArray type="Float64" Name="Points" NumberOfComponents="3" format="ascii" RangeMin="0.70710678119" RangeMax="1.2247448714">
          -1 -0.5 -0.5 0 -0.5 -0.5
          1 -0.5 -0.5 -1 0.5 -0.5
          0 0.5 -0.5 1 0.5 -0.5
          -1 -0.5 0.5 0 -0.5 0.5
          1 -0.5 0.5 -1 0.5 0.5
          0 0.5 0.5 1 0.5 0.5
        </DataArray>
      </Points>
      <Cells>
        <DataArray type="Int64" Name="connectivity" format="ascii" RangeMin="0" RangeMax="11">
          0 1 2 3 4 5
          6 7 8 9 10 11
        </DataArray>
        <DataArray type="Int64" Name="offsets" format="ascii" RangeMin="1" RangeMax="12">
          1 2 3 4 5 6
          7 8 9 10 11 12
        </DataArray>
        <DataArray type="UInt8" Name="types" format="ascii" RangeMin="1" RangeMax="1">
          1 1 1 1 1 1
          1 1 1 1 1 1
        </DataArray>
      </Cells>
    </Piece>
  </UnstructuredGrid>
</VTKFile>
