<?xml version="1.0"?>
<VTKFile type="UnstructuredGrid" version="0.1" byte_order="LittleEndian" compressor="vtkZLibDataCompressor">
  <UnstructuredGrid>
    <Piece NumberOfPoints="12" NumberOfCells="12">
      <PointData>
        <DataArray type="Float64" Name="Dilatation" format="ascii" RangeMin="-0.018880108281" RangeMax="-0.016816335214">
          -0.018880108281 -0.016816335214 -0.018880108281 -0.018880108281 -0.016816335214 -0.018880108281
          -0.018880108281 -0.016816335214 -0.018880108281 -0.018880108281 -0.016816335214 -0.018880108281
        </DataArray>
        <DataArray type="Float64" Name="Displacement" NumberOfComponents="3" format="ascii" RangeMin="0" RangeMax="0.081408693817">
          0 0 0 -0.040450849734 -0.0080737228333 -0.0080737228333
          -0.080901699469 -2.2682937581e-17 1.1479189159e-16 0 0.0064144544616 0
          -0.040450849734 0.014488177295 -0.0080737228333 -0.080901699469 0.0064144544616 -1.6243390359e-16
          0 0 0.0064144544616 -0.040450849734 -0.0080737228333 0.014488177295
          -0.080901699469 2.712544737e-16 0.0064144544616 0 0.0064144544616 0.0064144544616
          -0.040450849734 0.014488177295 0.014488177295 -0.080901699469 0.0064144544616 0.0064144544616
        </DataArray>
        <DataArray type="Float64" Name="Force_Density" NumberOfComponents="3" format="ascii" RangeMin="1.0179140162e-05" RangeMax="10638260077">
          -10638260077 -5.5730342865e-06 1.9133090973e-05 -5.9604644775e-07 6.9737434387e-06 7.3909759521e-06
          10638260077 -6.0796737671e-06 2.0027160645e-05 -10638260077 -6.840378046e-05 2.9802322388e-06
          -7.6055526733e-05 2.0805746317e-06 1.9311904907e-05 10638260077 -8.9652762357e-05 9.0479850769e-05
          -10638260077 1.9073486328e-06 -7.0540234447e-05 1.8358230591e-05 8.3923339844e-05 -8.724629879e-05
          10638260077 -5.9604644775e-05 -4.9502736741e-05 -10638260077 2.4240463972e-05 2.3934990168e-05
          5.6743621826e-05 4.2676925659e-05 1.6830861568e-05 10638260077 6.7681074142e-05 6.9923698902e-06
        </DataArray>
        <DataArray type="Int32" Name="ID" format="ascii" RangeMin="0" RangeMax="11">
          0 1 2 3 4 5
          6 7 8 9 10 11
        </DataArray>
        <DataArray type="Int32" Name="Proc_Num" format="ascii" RangeMin="0" RangeMax="0">
          0 0 0 0 0 0
          0 0 0 0 0 0
        </DataArray>
        <DataArray type="Float64" Name="Velocity" NumberOfComponents="3" format="ascii" RangeMin="0" RangeMax="0">
          0 0 0 0 0 0
          0 0 0 0 0 0
          0 0 0 0 0 0
          0 0 0 0 0 0
          0 0 0 0 0 0
          0 0 0 0 0 0
        </DataArray>
        <DataArray type="Float64" Name="Weighted_Volume" format="ascii" RangeMin="12" RangeMax="20">
          12 20 12 12 20 12
          12 20 12 12 20 12
        </DataArray>
      </PointData>
      <CellData>
      </CellData>
      <Points>
        <DataArray type="Float64" Name="Points" NumberOfComponents="3" format="ascii" RangeMin="0.70710678119" RangeMax="1.2247448714">
          -1 -0.5 -0.5 0 -0.5 -0.5
          1 -0.5 -0.5 -1 0.5 -0.5
          0 0.5 -0.5 1 0.5 -0.5
          -1 -0.5 0.5 0 -0.5 0.5
          1 -0.5 0.5 -1 0.5 0.5
          0 0.5 0.5 1 0.5 0.5
        </DataArray>
      </Points>
      <Cells>
        <DataArray type="Int64" Name="connectivity" format="ascii" RangeMin="0" RangeMax="11">
          0 1 2 3 4 5
          6 7 8 9 10 11
        </DataArray>
        <DataArray type="Int64" Name="offsets" format="ascii" RangeMin="1" RangeMax="12">
          1 2 3 4 5 6
          7 8 9 10 11 12
        </DataArray>
        <DataArray type="UInt8" Name="types" format="ascii" RangeMin="1" RangeMax="1">
          1 1 1 1 1 1
          1 1 1 1 1 1
        </DataArray>
      </Cells>
    </Piece>
  </UnstructuredGrid>
</VTKFile>
