<?xml version="1.0"?>
<VTKFile type="UnstructuredGrid" version="0.1" byte_order="LittleEndian" compressor="vtkZLibDataCompressor">
  <UnstructuredGrid>
    <Piece NumberOfPoints="12" NumberOfCells="12">
      <PointData>
        <DataArray type="Float64" Name="Dilatation" format="ascii" RangeMin="-0.017764064925" RangeMax="-0.015856322643">
          -0.017764064925 -0.015856322643 -0.017764064925 -0.017764064925 -0.015856322643 -0.017764064925
          -0.017764064925 -0.015856322643 -0.017764064925 -0.017764064925 -0.015856322643 -0.017764064925
        </DataArray>
        <DataArray type="Float64" Name="Displacement" NumberOfComponents="3" format="ascii" RangeMin="0" RangeMax="0.076519865529">
          0 0 0 -0.038020298296 -0.0075736541368 -0.0075736541368
          -0.076040596592 -2.8076022799e-16 5.5446913361e-17 0 0.0060463828276 0
          -0.038020298296 0.013620036964 -0.0075736541368 -0.076040596592 0.0060463828276 6.0990714489e-17
          0 0 0.0060463828276 -0.038020298296 -0.0075736541368 0.013620036964
          -0.076040596592 -1.0502569911e-16 0.0060463828276 0 0.0060463828276 0.0060463828276
          -0.038020298296 0.013620036964 0.013620036964 -0.076040596592 0.0060463828276 0.0060463828276
        </DataArray>
        <DataArray type="Float64" Name="Force_Density" NumberOfComponents="3" format="ascii" RangeMin="4.2424915418e-05" RangeMax="10016508063">
          -10016508063 -2.6553869247e-05 -3.0696392059e-06 -7.7247619629e-05 -9.4771385193e-06 1.5318393707e-05
          10016508063 3.8146972656e-05 5.6743621826e-05 -10016508063 3.7150457501e-06 -2.5033950806e-06
          2.4557113647e-05 2.8541311622e-05 1.9550323486e-05 10016508063 3.6853889485e-05 -3.6597251892e-05
          -10016508063 -2.2530555725e-05 2.3544766009e-05 -6.2704086304e-05 2.0265579224e-05 2.83382833e-05
          10016508063 5.054473877e-05 -4.9914097574e-05 -10016508063 2.9355287552e-06 3.2335519791e-06
          -7.6770782471e-05 -4.1745603085e-05 -1.7426908016e-05 10016508063 -8.1483274698e-05 -3.7219375372e-05
        </DataArray>
        <DataArray type="Int32" Name="ID" format="ascii" RangeMin="0" RangeMax="11">
          0 1 2 3 4 5
          6 7 8 9 10 11
        </DataArray>
        <DataArray type="Int32" Name="Proc_Num" format="ascii" RangeMin="0" RangeMax="0">
          0 0 0 0 0 0
          0 0 0 0 0 0
        </DataArray>
        <DataArray type="Float64" Name="Velocity" NumberOfComponents="3" format="ascii" RangeMin="0" RangeMax="0">
          0 0 0 0 0 0
          0 0 0 0 0 0
          0 0 0 0 0 0
          0 0 0 0 0 0
          0 0 0 0 0 0
          0 0 0 0 0 0
        </DataArray>
        <DataArray type="Float64" Name="Weighted_Volume" format="ascii" RangeMin="12" RangeMax="20">
          12 20 12 12 20 12
          12 20 12 12 20 12
        </DataArray>
      </PointData>
      <CellData>
      </CellData>
      <Points>
        <DataArray type="Float64" Name="Points" NumberOfComponents="3" format="ascii" RangeMin="0.70710678119" RangeMax="1.2247448714">
          -1 -0.5 -0.5 0 -0.5 -0.5
          1 -0.5 -0.5 -1 0.5 -0.5
          0 0.5 -0.5 1 0.5 -0.5
          -1 -0.5 0.5 0 -0.5 0.5
          1 -0.5 0.5 -1 0.5 0.5
          0 0.5 0.5 1 0.5 0.5
        </DataArray>
      </Points>
      <Cells>
        <DataArray type="Int64" Name="connectivity" format="ascii" RangeMin="0" RangeMax="11">
          0 1 2 3 4 5
          6 7 8 9 10 11
        </DataArray>
        <DataArray type="Int64" Name="offsets" format="ascii" RangeMin="1" RangeMax="12">
          1 2 3 4 5 6
          7 8 9 10 11 12
        </DataArray>
        <DataArray type="UInt8" Name="types" format="ascii" RangeMin="1" RangeMax="1">
          1 1 1 1 1 1
          1 1 1 1 1 1
        </DataArray>
      </Cells>
    </Piece>
  </UnstructuredGrid>
</VTKFile>
