<?xml version="1.0"?>
<VTKFile type="UnstructuredGrid" version="0.1" byte_order="LittleEndian" compressor="vtkZLibDataCompressor">
  <UnstructuredGrid>
    <Piece NumberOfPoints="12" NumberOfCells="12">
      <PointData>
        <DataArray type="Float64" Name="Dilatation" format="ascii" RangeMin="-0.021508350864" RangeMax="-0.019058756616">
          -0.021508350864 -0.019058756616 -0.021508350864 -0.021508350864 -0.019058756616 -0.021508350864
          -0.021508350864 -0.019058756616 -0.021508350864 -0.021508350864 -0.019058756616 -0.021508350864
        </DataArray>
        <DataArray type="Float64" Name="Displacement" NumberOfComponents="3" format="ascii" RangeMin="0" RangeMax="0.092959007972">
          0 0 0 -0.046193976604 -0.0092634164816 -0.0092634164816
          -0.092387953209 1.3812900095e-16 2.6321017827e-16 0 0.0072747255957 0
          -0.046193976604 0.016538142077 -0.0092634164816 -0.092387953209 0.0072747255957 3.0172840352e-16
          0 0 0.0072747255957 -0.046193976604 -0.0092634164816 0.016538142077
          -0.092387953209 1.3156223383e-16 0.0072747255957 0 0.0072747255957 0.0072747255957
          -0.046193976604 0.016538142077 0.016538142077 -0.092387953209 0.0072747255957 0.0072747255957
        </DataArray>
        <DataArray type="Float64" Name="Force_Density" NumberOfComponents="3" format="ascii" RangeMin="4.0459538095e-05" RangeMax="12098506222">
          -12098506222 5.7548284531e-05 5.242228508e-05 4.255771637e-05 5.3942203522e-05 3.6597251892e-05
          12098506222 -7.6770782471e-05 1.4901161194e-05 -12098506222 -3.1322240829e-05 5.2571296692e-05
          -0.00010347366333 -7.4189156294e-06 -1.3113021851e-05 12098506222 2.651847899e-05 -1.0013580322e-05
          -12098506222 5.9604644775e-06 -3.3490359783e-05 -4.4584274292e-05 3.2663345337e-05 -5.779415369e-05
          12098506222 -5.1379203796e-05 1.0035932064e-05 -12098506222 -5.4348260164e-05 -3.1620264053e-05
          -2.1934509277e-05 3.2491981983e-05 1.0006129742e-05 12098506222 1.1943280697e-05 -3.0398368835e-05
        </DataArray>
        <DataArray type="Int32" Name="ID" format="ascii" RangeMin="0" RangeMax="11">
          0 1 2 3 4 5
          6 7 8 9 10 11
        </DataArray>
        <DataArray type="Int32" Name="Proc_Num" format="ascii" RangeMin="0" RangeMax="0">
          0 0 0 0 0 0
          0 0 0 0 0 0
        </DataArray>
        <DataArray type="Float64" Name="Velocity" NumberOfComponents="3" format="ascii" RangeMin="0" RangeMax="2186.0868111">
          0 0 0 1087.0793552 226.53767843 226.53767843
          2174.1587103 9.6888756641e-11 5.8772199673e-11 0 -161.25980312 0
          1087.0793552 -387.79748154 226.53767843 2174.1587103 -161.25980312 1.6908141431e-10
          0 0 -161.25980312 1087.0793552 226.53767843 -387.79748154
          2174.1587103 2.8829933384e-11 -161.25980312 0 -161.25980312 -161.25980312
          1087.0793552 -387.79748154 -387.79748154 2174.1587103 -161.25980312 -161.25980312
        </DataArray>
        <DataArray type="Float64" Name="Weighted_Volume" format="ascii" RangeMin="12" RangeMax="20">
          12 20 12 12 20 12
          12 20 12 12 20 12
        </DataArray>
      </PointData>
      <CellData>
      </CellData>
      <Points>
        <DataArray type="Float64" Name="Points" NumberOfComponents="3" format="ascii" RangeMin="0.70710678119" RangeMax="1.2247448714">
          -1 -0.5 -0.5 0 -0.5 -0.5
          1 -0.5 -0.5 -1 0.5 -0.5
          0 0.5 -0.5 1 0.5 -0.5
          -1 -0.5 0.5 0 -0.5 0.5
          1 -0.5 0.5 -1 0.5 0.5
          0 0.5 0.5 1 0.5 0.5
        </DataArray>
      </Points>
      <Cells>
        <DataArray type="Int64" Name="connectivity" format="ascii" RangeMin="0" RangeMax="11">
          0 1 2 3 4 5
          6 7 8 9 10 11
        </DataArray>
        <DataArray type="Int64" Name="offsets" format="ascii" RangeMin="1" RangeMax="12">
          1 2 3 4 5 6
          7 8 9 10 11 12
        </DataArray>
        <DataArray type="UInt8" Name="types" format="ascii" RangeMin="1" RangeMax="1">
          1 1 1 1 1 1
          1 1 1 1 1 1
        </DataArray>
      </Cells>
    </Piece>
  </UnstructuredGrid>
</VTKFile>
