<?xml version="1.0"?>
<VTKFile type="UnstructuredGrid" version="0.1" byte_order="LittleEndian" compressor="vtkZLibDataCompressor">
  <UnstructuredGrid>
    <Piece NumberOfPoints="12" NumberOfCells="12">
      <PointData>
        <DataArray type="Float64" Name="Dilatation" format="ascii" RangeMin="-0.0018606284762" RangeMax="-0.0017083253563">
          -0.0018606284762 -0.0017083253563 -0.0018606284762 -0.0018606284762 -0.0017083253563 -0.0018606284762
          -0.0018606284762 -0.0017083253563 -0.0018606284762 -0.0018606284762 -0.0017083253563 -0.0018606284762
        </DataArray>
        <DataArray type="Float64" Name="Displacement" NumberOfComponents="3" format="ascii" RangeMin="0" RangeMax="0.0078991870954">
          0 0 0 -0.0039229547886 -0.00076084102774 -0.00076084102774
          -0.0078459095772 9.7218366719e-18 -4.9648895547e-17 0 0.00064763403038 0
          -0.0039229547886 0.0014084750581 -0.00076084102774 -0.0078459095772 0.00064763403038 1.1311796467e-16
          0 0 0.00064763403038 -0.0039229547886 -0.00076084102774 0.0014084750581
          -0.0078459095772 -1.0548483738e-16 0.00064763403038 0 0.00064763403038 0.00064763403038
          -0.0039229547886 0.0014084750581 0.0014084750581 -0.0078459095772 0.00064763403038 0.00064763403038
        </DataArray>
        <DataArray type="Float64" Name="Force_Density" NumberOfComponents="3" format="ascii" RangeMin="3.2609366906e-05" RangeMax="1058764752.9">
          -1058764752.9 -8.4191560745e-06 -3.3210963011e-05 -1.722574234e-05 4.3869018555e-05 -4.7758221626e-06
          1058764752.9 -2.384185791e-06 -2.5182962418e-06 -1058764752.9 8.603274182e-06 -8.6724758148e-06
          -3.7208199501e-05 5.1900860853e-07 -3.4272670746e-07 1058764752.9 2.8628041893e-05 -5.3152441978e-05
          -1058764752.9 -3.3006072044e-05 3.3151613025e-05 -6.1616301537e-05 -6.5565109253e-07 2.4970402592e-05
          1058764752.9 -2.8595328331e-05 5.3047621962e-05 -1058764752.9 8.646689821e-06 3.3130228985e-05
          1.722574234e-05 -1.9563070964e-05 -1.9594153855e-05 1058764752.9 2.4326727726e-06 -2.201157622e-05
        </DataArray>
        <DataArray type="Int32" Name="ID" format="ascii" RangeMin="0" RangeMax="11">
          0 1 2 3 4 5
          6 7 8 9 10 11
        </DataArray>
        <DataArray type="Int32" Name="Proc_Num" format="ascii" RangeMin="0" RangeMax="0">
          0 0 0 0 0 0
          0 0 0 0 0 0
        </DataArray>
        <DataArray type="Float64" Name="Velocity" NumberOfComponents="3" format="ascii" RangeMin="0" RangeMax="6319.3496763">
          0 0 0 -3138.3638309 -608.67282219 -608.67282219
          -6276.7276618 7.7774693375e-12 -3.9719116438e-11 0 518.1072243 0
          -3138.3638309 1126.7800465 -608.67282219 -6276.7276618 518.1072243 9.0494371739e-11
          0 0 518.1072243 -3138.3638309 -608.67282219 1126.7800465
          -6276.7276618 -8.4387869902e-11 518.1072243 0 518.1072243 518.1072243
          -3138.3638309 1126.7800465 1126.7800465 -6276.7276618 518.1072243 518.1072243
        </DataArray>
        <DataArray type="Float64" Name="Weighted_Volume" format="ascii" RangeMin="12" RangeMax="20">
          12 20 12 12 20 12
          12 20 12 12 20 12
        </DataArray>
      </PointData>
      <CellData>
      </CellData>
      <Points>
        <DataArray type="Float64" Name="Points" NumberOfComponents="3" format="ascii" RangeMin="0.70710678119" RangeMax="1.2247448714">
          -1 -0.5 -0.5 0 -0.5 -0.5
          1 -0.5 -0.5 -1 0.5 -0.5
          0 0.5 -0.5 1 0.5 -0.5
          -1 -0.5 0.5 0 -0.5 0.5
          1 -0.5 0.5 -1 0.5 0.5
          0 0.5 0.5 1 0.5 0.5
        </DataArray>
      </Points>
      <Cells>
        <DataArray type="Int64" Name="connectivity" format="ascii" RangeMin="0" RangeMax="11">
          0 1 2 3 4 5
          6 7 8 9 10 11
        </DataArray>
        <DataArray type="Int64" Name="offsets" format="ascii" RangeMin="1" RangeMax="12">
          1 2 3 4 5 6
          7 8 9 10 11 12
        </DataArray>
        <DataArray type="UInt8" Name="types" format="ascii" RangeMin="1" RangeMax="1">
          1 1 1 1 1 1
          1 1 1 1 1 1
        </DataArray>
      </Cells>
    </Piece>
  </UnstructuredGrid>
</VTKFile>
