<?xml version="1.0"?>
<VTKFile type="UnstructuredGrid" version="0.1" byte_order="LittleEndian" compressor="vtkZLibDataCompressor">
  <UnstructuredGrid>
    <Piece NumberOfPoints="12" NumberOfCells="12">
      <PointData>
        <DataArray type="Float64" Name="Dilatation" format="ascii" RangeMin="-0.003703263797" RangeMax="-0.00338976619">
          -0.003703263797 -0.00338976619 -0.003703263797 -0.003703263797 -0.00338976619 -0.003703263797
          -0.003703263797 -0.00338976619 -0.003703263797 -0.003703263797 -0.00338976619 -0.003703263797
        </DataArray>
        <DataArray type="Float64" Name="Displacement" NumberOfComponents="3" format="ascii" RangeMin="0" RangeMax="0.01574882643">
          0 0 0 -0.007821723169 -0.0015215100153 -0.0015215100153
          -0.015643446338 3.5551938915e-17 -2.4174889153e-16 0 0.0012861027533 0
          -0.007821723169 0.0028076127686 -0.0015215100153 -0.015643446338 0.0012861027533 -6.2167051166e-17
          0 0 0.0012861027533 -0.007821723169 -0.0015215100153 0.0028076127686
          -0.015643446338 -6.5921347612e-17 0.0012861027533 0 0.0012861027533 0.0012861027533
          -0.007821723169 0.0028076127686 0.0028076127686 -0.015643446338 0.0012861027533 0.0012861027533
        </DataArray>
        <DataArray type="Float64" Name="Force_Density" NumberOfComponents="3" format="ascii" RangeMin="3.4381951362e-06" RangeMax="2105247187.2">
          -2105247187.2 -1.0326504707e-05 -2.8729438782e-05 8.3714723587e-05 -3.7401914597e-06 -3.5613775253e-06
          2105247187.2 2.034008503e-05 6.3449144363e-05 -2105247187.2 4.0904444177e-05 -4.0769577026e-05
          1.4901161194e-07 2.8165639378e-05 -2.7418136597e-06 2105247187.2 -1.4272248653e-05 -5.3614377975e-05
          -2105247187.2 -4.0829181671e-05 8.4276398411e-05 -8.3744525909e-05 2.2232532501e-05 3.679189831e-06
          2105247187.2 3.2931566238e-05 -5.7716533775e-05 -2105247187.2 -1.4358200133e-05 1.0405667126e-05
          1.1920928955e-07 2.4347100407e-06 2.424698323e-06 2105247187.2 -6.3519692048e-05 2.2873049602e-05
        </DataArray>
        <DataArray type="Int32" Name="ID" format="ascii" RangeMin="0" RangeMax="11">
          0 1 2 3 4 5
          6 7 8 9 10 11
        </DataArray>
        <DataArray type="Int32" Name="Proc_Num" format="ascii" RangeMin="0" RangeMax="0">
          0 0 0 0 0 0
          0 0 0 0 0 0
        </DataArray>
        <DataArray type="Float64" Name="Velocity" NumberOfComponents="3" format="ascii" RangeMin="0" RangeMax="6201.3720401">
          0 0 0 3080.4359554 604.59731857 604.59731857
          6160.8719108 1.3142793587e-10 -2.4743525808e-10 0 -500.33612646 0
          3080.4359554 -1104.933445 604.59731857 6160.8719108 -500.33612646 -3.6688512364e-11
          0 0 -500.33612646 3080.4359554 604.59731857 -1104.933445
          6160.8719108 -1.0567591394e-10 -500.33612646 0 -500.33612646 -500.33612646
          3080.4359554 -1104.933445 -1104.933445 6160.8719108 -500.33612646 -500.33612646
        </DataArray>
        <DataArray type="Float64" Name="Weighted_Volume" format="ascii" RangeMin="12" RangeMax="20">
          12 20 12 12 20 12
          12 20 12 12 20 12
        </DataArray>
      </PointData>
      <CellData>
      </CellData>
      <Points>
        <DataArray type="Float64" Name="Points" NumberOfComponents="3" format="ascii" RangeMin="0.70710678119" RangeMax="1.2247448714">
          -1 -0.5 -0.5 0 -0.5 -0.5
          1 -0.5 -0.5 -1 0.5 -0.5
          0 0.5 -0.5 1 0.5 -0.5
          -1 -0.5 0.5 0 -0.5 0.5
          1 -0.5 0.5 -1 0.5 0.5
          0 0.5 0.5 1 0.5 0.5
        </DataArray>
      </Points>
      <Cells>
        <DataArray type="Int64" Name="connectivity" format="ascii" RangeMin="0" RangeMax="11">
          0 1 2 3 4 5
          6 7 8 9 10 11
        </DataArray>
        <DataArray type="Int64" Name="offsets" format="ascii" RangeMin="1" RangeMax="12">
          1 2 3 4 5 6
          7 8 9 10 11 12
        </DataArray>
        <DataArray type="UInt8" Name="types" format="ascii" RangeMin="1" RangeMax="1">
          1 1 1 1 1 1
          1 1 1 1 1 1
        </DataArray>
      </Cells>
    </Piece>
  </UnstructuredGrid>
</VTKFile>
