<?xml version="1.0"?>
<VTKFile type="UnstructuredGrid" version="0.1" byte_order="LittleEndian" compressor="vtkZLibDataCompressor">
  <UnstructuredGrid>
    <Piece NumberOfPoints="12" NumberOfCells="12">
      <PointData>
        <DataArray type="Float64" Name="Dilatation" format="ascii" RangeMin="-0.022128408082" RangeMax="-0.019583963608">
          -0.022128408082 -0.019583963608 -0.022128408082 -0.022128408082 -0.019583963608 -0.022128408082
          -0.022128408082 -0.019583963608 -0.022128408082 -0.022128408082 -0.019583963608 -0.022128408082
        </DataArray>
        <DataArray type="Float64" Name="Displacement" NumberOfComponents="3" format="ascii" RangeMin="0" RangeMax="0.095691562376">
          0 0 0 -0.047552825826 -0.0095465885854 -0.0095465885854
          -0.095105651651 1.0438182447e-16 -1.5163063624e-17 0 0.0074763003537 0
          -0.047552825826 0.017022888939 -0.0095465885854 -0.095105651651 0.0074763003537 9.6378859188e-17
          0 0 0.0074763003537 -0.047552825826 -0.0095465885854 0.017022888939
          -0.095105651651 4.1769711858e-17 0.0074763003537 0 0.0074763003537 0.0074763003537
          -0.047552825826 0.017022888939 0.017022888939 -0.095105651651 0.0074763003537 0.0074763003537
        </DataArray>
        <DataArray type="Float64" Name="Force_Density" NumberOfComponents="3" format="ascii" RangeMin="9.1737366641e-05" RangeMax="12442179324">
          -12442179324 6.3717365265e-05 8.5294246674e-05 -1.7881393433e-07 5.8948993683e-05 -8.4936618805e-05
          12442179324 -1.6689300537e-05 5.567073822e-05 -12442179324 -0.00010667741299 8.1181526184e-05
          -4.6730041504e-05 -6.465241313e-06 7.8678131104e-05 12442179324 -7.6329569791e-05 5.1856040955e-05
          -12442179324 6.3300132751e-05 -3.7625432014e-05 0 0.00014328956604 -9.2227011919e-05
          12442179324 5.8770179749e-05 -7.4950498602e-06 -12442179324 -6.6269189119e-05 -6.7044049501e-05
          7.438659668e-05 -7.9430639744e-05 -2.7522444725e-05 12442179324 -3.5844743252e-05 -3.6276876926e-05
        </DataArray>
        <DataArray type="Int32" Name="ID" format="ascii" RangeMin="0" RangeMax="11">
          0 1 2 3 4 5
          6 7 8 9 10 11
        </DataArray>
        <DataArray type="Int32" Name="Proc_Num" format="ascii" RangeMin="0" RangeMax="0">
          0 0 0 0 0 0
          0 0 0 0 0 0
        </DataArray>
        <DataArray type="Float64" Name="Velocity" NumberOfComponents="3" format="ascii" RangeMin="0" RangeMax="2186.0868007">
          0 0 0 -1087.0793499 -226.53767735 -226.53767735
          -2174.1586999 -1.8498531388e-10 1.5765404706e-10 0 161.25980233 0
          -1087.0793499 387.79747968 -226.53767735 -2174.1586999 161.25980233 1.8240865664e-10
          0 0 161.25980233 -1087.0793499 -226.53767735 387.79747968
          -2174.1586999 1.9795157351e-11 161.25980233 0 161.25980233 161.25980233
          -1087.0793499 387.79747968 387.79747968 -2174.1586999 161.25980233 161.25980233
        </DataArray>
        <DataArray type="Float64" Name="Weighted_Volume" format="ascii" RangeMin="12" RangeMax="20">
          12 20 12 12 20 12
          12 20 12 12 20 12
        </DataArray>
      </PointData>
      <CellData>
      </CellData>
      <Points>
        <DataArray type="Float64" Name="Points" NumberOfComponents="3" format="ascii" RangeMin="0.70710678119" RangeMax="1.2247448714">
          -1 -0.5 -0.5 0 -0.5 -0.5
          1 -0.5 -0.5 -1 0.5 -0.5
          0 0.5 -0.5 1 0.5 -0.5
          -1 -0.5 0.5 0 -0.5 0.5
          1 -0.5 0.5 -1 0.5 0.5
          0 0.5 0.5 1 0.5 0.5
        </DataArray>
      </Points>
      <Cells>
        <DataArray type="Int64" Name="connectivity" format="ascii" RangeMin="0" RangeMax="11">
          0 1 2 3 4 5
          6 7 8 9 10 11
        </DataArray>
        <DataArray type="Int64" Name="offsets" format="ascii" RangeMin="1" RangeMax="12">
          1 2 3 4 5 6
          7 8 9 10 11 12
        </DataArray>
        <DataArray type="UInt8" Name="types" format="ascii" RangeMin="1" RangeMax="1">
          1 1 1 1 1 1
          1 1 1 1 1 1
        </DataArray>
      </Cells>
    </Piece>
  </UnstructuredGrid>
</VTKFile>
