<?xml version="1.0"?>
<VTKFile type="UnstructuredGrid" version="0.1" byte_order="LittleEndian" compressor="vtkZLibDataCompressor">
  <UnstructuredGrid>
    <Piece NumberOfPoints="12" NumberOfCells="12">
      <PointData>
        <DataArray type="Float64" Name="Dilatation" format="ascii" RangeMin="-0.019879733184" RangeMax="-0.017672282497">
          -0.019879733184 -0.017672282497 -0.019879733184 -0.019879733184 -0.017672282497 -0.019879733184
          -0.019879733184 -0.017672282497 -0.019879733184 -0.019879733184 -0.017672282497 -0.019879733184
        </DataArray>
        <DataArray type="Float64" Name="Displacement" NumberOfComponents="3" format="ascii" RangeMin="0" RangeMax="0.085795581227">
          0 0 0 -0.042632008187 -0.0085242045268 -0.0085242045268
          -0.085264016373 2.3456691755e-17 -1.7594920607e-16 0 0.0067427468475 0
          -0.042632008187 0.015266951374 -0.0085242045268 -0.085264016373 0.0067427468475 7.2182152359e-17
          0 0 0.0067427468475 -0.042632008187 -0.0085242045268 0.015266951374
          -0.085264016373 1.2596155867e-17 0.0067427468475 0 0.0067427468475 0.0067427468475
          -0.042632008187 0.015266951374 0.015266951374 -0.085264016373 0.0067427468475 0.0067427468475
        </DataArray>
        <DataArray type="Float64" Name="Force_Density" NumberOfComponents="3" format="ascii" RangeMin="4.5258447581e-05" RangeMax="11194311892">
          -11194311892 0.00010845065117 -2.6613473892e-05 -3.19480896e-05 7.0750713348e-05 0.00011718273163
          11194311892 -4.3630599976e-05 1.8715858459e-05 -11194311892 -7.7656470239e-05 5.2213668823e-05
          -7.6293945312e-06 -5.3502619267e-05 -2.0503997803e-05 11194311892 8.7796998361e-05 -2.0861625671e-05
          -11194311892 1.1086463928e-05 9.1940164566e-06 -3.1709671021e-05 2.7179718018e-05 1.7438083887e-05
          11194311892 -6.3300132751e-05 -4.5272665639e-05 -11194311892 -8.5189938545e-05 -0.00010218471289
          3.6239624023e-05 -4.8764050007e-05 -1.4677643776e-06 11194311892 6.6794455051e-05 1.959502697e-06
        </DataArray>
        <DataArray type="Int32" Name="ID" format="ascii" RangeMin="0" RangeMax="11">
          0 1 2 3 4 5
          6 7 8 9 10 11
        </DataArray>
        <DataArray type="Int32" Name="Proc_Num" format="ascii" RangeMin="0" RangeMax="0">
          0 0 0 0 0 0
          0 0 0 0 0 0
        </DataArray>
        <DataArray type="Float64" Name="Velocity" NumberOfComponents="3" format="ascii" RangeMin="0" RangeMax="3086.4532506">
          0 0 0 1534.6543974 318.04541397 318.04541397
          3069.3087949 -5.4558839412e-11 -2.1769144261e-10 0 -229.71415929 0
          1534.6543974 -547.75957326 318.04541397 3069.3087949 -229.71415929 2.4865356046e-12
          0 0 -229.71415929 1534.6543974 318.04541397 -547.75957326
          3069.3087949 -2.7674798855e-11 -229.71415929 0 -229.71415929 -229.71415929
          1534.6543974 -547.75957326 -547.75957326 3069.3087949 -229.71415929 -229.71415929
        </DataArray>
        <DataArray type="Float64" Name="Weighted_Volume" format="ascii" RangeMin="12" RangeMax="20">
          12 20 12 12 20 12
          12 20 12 12 20 12
        </DataArray>
      </PointData>
      <CellData>
      </CellData>
      <Points>
        <DataArray type="Float64" Name="Points" NumberOfComponents="3" format="ascii" RangeMin="0.70710678119" RangeMax="1.2247448714">
          -1 -0.5 -0.5 0 -0.5 -0.5
          1 -0.5 -0.5 -1 0.5 -0.5
          0 0.5 -0.5 1 0.5 -0.5
          -1 -0.5 0.5 0 -0.5 0.5
          1 -0.5 0.5 -1 0.5 0.5
          0 0.5 0.5 1 0.5 0.5
        </DataArray>
      </Points>
      <Cells>
        <DataArray type="Int64" Name="connectivity" format="ascii" RangeMin="0" RangeMax="11">
          0 1 2 3 4 5
          6 7 8 9 10 11
        </DataArray>
        <DataArray type="Int64" Name="offsets" format="ascii" RangeMin="1" RangeMax="12">
          1 2 3 4 5 6
          7 8 9 10 11 12
        </DataArray>
        <DataArray type="UInt8" Name="types" format="ascii" RangeMin="1" RangeMax="1">
          1 1 1 1 1 1
          1 1 1 1 1 1
        </DataArray>
      </Cells>
    </Piece>
  </UnstructuredGrid>
</VTKFile>
