<?xml version="1.0"?>
<VTKFile type="UnstructuredGrid" version="0.1" byte_order="LittleEndian" compressor="vtkZLibDataCompressor">
  <UnstructuredGrid>
    <Piece NumberOfPoints="12" NumberOfCells="12">
      <PointData>
        <DataArray type="Float64" Name="Dilatation" format="ascii" RangeMin="-0.028146311031" RangeMax="-0.024602508408">
          -0.028146311031 -0.024602508408 -0.028146311031 -0.028146311031 -0.024602508408 -0.028146311031
          -0.028146311031 -0.024602508408 -0.028146311031 -0.028146311031 -0.024602508408 -0.028146311031
        </DataArray>
        <DataArray type="Float64" Name="Displacement" NumberOfComponents="3" format="ascii" RangeMin="0" RangeMax="0.12236087637">
          0 0 0 -0.060818050753 -0.012345854416 -0.012345854416
          -0.12163610151 -1.5312864461e-16 2.0666364391e-16 0 0.0094032674503 0
          -0.060818050753 0.021749121867 -0.012345854416 -0.12163610151 0.0094032674503 -1.1219513231e-16
          0 0 0.0094032674503 -0.060818050753 -0.012345854416 0.021749121867
          -0.12163610151 1.0251652708e-16 0.0094032674503 0 0.0094032674503 0.0094032674503
          -0.060818050753 0.021749121867 0.021749121867 -0.12163610151 0.0094032674503 0.0094032674503
        </DataArray>
        <DataArray type="Float64" Name="Force_Density" NumberOfComponents="3" format="ascii" RangeMin="4.3991942882e-05" RangeMax="15760371210">
          -15760371210 6.377696991e-06 5.304813385e-06 4.0769577026e-05 -7.3909759521e-06 1.4781951904e-05
          15760371210 3.6716461182e-05 -1.2874603271e-05 -15760371210 1.6925856471e-05 -1.8835067749e-05
          -6.1988830566e-05 -6.07855618e-05 3.7908554077e-05 15760371210 -1.2836581606e-05 3.7312507629e-05
          -15760371210 2.5987625122e-05 -4.5262277126e-07 -6.5803527832e-05 4.3153762817e-05 7.9609453678e-06
          15760371210 3.7670135498e-05 -3.5828491954e-05 -15760371210 -6.7353248596e-06 -5.6028366089e-06
          2.384185791e-05 -4.2259693146e-05 -1.9729137421e-05 15760371210 -3.6627054214e-05 -9.5516443253e-06
        </DataArray>
        <DataArray type="Int32" Name="ID" format="ascii" RangeMin="0" RangeMax="11">
          0 1 2 3 4 5
          6 7 8 9 10 11
        </DataArray>
        <DataArray type="Int32" Name="Proc_Num" format="ascii" RangeMin="0" RangeMax="0">
          0 0 0 0 0 0
          0 0 0 0 0 0
        </DataArray>
        <DataArray type="Float64" Name="Velocity" NumberOfComponents="3" format="ascii" RangeMin="0" RangeMax="0">
          0 0 0 0 0 0
          0 0 0 0 0 0
          0 0 0 0 0 0
          0 0 0 0 0 0
          0 0 0 0 0 0
          0 0 0 0 0 0
        </DataArray>
        <DataArray type="Float64" Name="Weighted_Volume" format="ascii" RangeMin="12" RangeMax="20">
          12 20 12 12 20 12
          12 20 12 12 20 12
        </DataArray>
      </PointData>
      <CellData>
      </CellData>
      <Points>
        <DataArray type="Float64" Name="Points" NumberOfComponents="3" format="ascii" RangeMin="0.70710678119" RangeMax="1.2247448714">
          -1 -0.5 -0.5 0 -0.5 -0.5
          1 -0.5 -0.5 -1 0.5 -0.5
          0 0.5 -0.5 1 0.5 -0.5
          -1 -0.5 0.5 0 -0.5 0.5
          1 -0.5 0.5 -1 0.5 0.5
          0 0.5 0.5 1 0.5 0.5
        </DataArray>
      </Points>
      <Cells>
        <DataArray type="Int64" Name="connectivity" format="ascii" RangeMin="0" RangeMax="11">
          0 1 2 3 4 5
          6 7 8 9 10 11
        </DataArray>
        <DataArray type="Int64" Name="offsets" format="ascii" RangeMin="1" RangeMax="12">
          1 2 3 4 5 6
          7 8 9 10 11 12
        </DataArray>
        <DataArray type="UInt8" Name="types" format="ascii" RangeMin="1" RangeMax="1">
          1 1 1 1 1 1
          1 1 1 1 1 1
        </DataArray>
      </Cells>
    </Piece>
  </UnstructuredGrid>
</VTKFile>
