<?xml version="1.0"?>
<VTKFile type="UnstructuredGrid" version="0.1" byte_order="LittleEndian" compressor="vtkZLibDataCompressor">
  <UnstructuredGrid>
    <Piece NumberOfPoints="12" NumberOfCells="12">
      <PointData>
        <DataArray type="Float64" Name="Dilatation" format="ascii" RangeMin="-0.013782559551" RangeMax="-0.012394713678">
          -0.013782559551 -0.012394713678 -0.013782559551 -0.013782559551 -0.012394713678 -0.013782559551
          -0.013782559551 -0.012394713678 -0.013782559551 -0.013782559551 -0.012394713678 -0.013782559551
        </DataArray>
        <DataArray type="Float64" Name="Displacement" NumberOfComponents="3" format="ascii" RangeMin="0" RangeMax="0.059156432012">
          0 0 0 -0.029389262629 -0.0058139391162 -0.0058139391162
          -0.058778525258 -4.26402741e-17 -4.0185994743e-17 0 0.0047206152602 0
          -0.029389262629 0.010534554376 -0.0058139391162 -0.058778525258 0.0047206152602 7.1717973044e-17
          0 0 0.0047206152602 -0.029389262629 -0.0058139391162 0.010534554376
          -0.058778525258 2.1326357421e-17 0.0047206152602 0 0.0047206152602 0.0047206152602
          -0.029389262629 0.010534554376 0.010534554376 -0.058778525258 0.0047206152602 0.0047206152602
        </DataArray>
        <DataArray type="Float64" Name="Force_Density" NumberOfComponents="3" format="ascii" RangeMin="1.7037429999e-05" RangeMax="7790569748.3">
          -7790569748.3 5.6743621826e-05 -1.1593103409e-05 -3.8862228394e-05 1.1026859283e-06 -4.9263238907e-05
          7790569748.3 4.4405460358e-05 1.9371509552e-05 -7790569748.3 -0.00010751746595 3.9339065552e-05
          2.4795532227e-05 -8.2723796368e-05 3.182888031e-05 7790569748.3 1.0933727026e-05 -3.5583972931e-05
          -7790569748.3 -2.7894973755e-05 -3.9546750486e-05 3.8146972656e-06 1.0967254639e-05 1.2467615306e-05
          7790569748.3 -1.5377998352e-05 -8.872608211e-06 -7790569748.3 5.4532662034e-05 1.1334195733e-05
          -2.4318695068e-05 0.00011883303523 9.411200881e-05 7790569748.3 -6.3728541136e-05 -6.3635408878e-05
        </DataArray>
        <DataArray type="Int32" Name="ID" format="ascii" RangeMin="0" RangeMax="11">
          0 1 2 3 4 5
          6 7 8 9 10 11
        </DataArray>
        <DataArray type="Int32" Name="Proc_Num" format="ascii" RangeMin="0" RangeMax="0">
          0 0 0 0 0 0
          0 0 0 0 0 0
        </DataArray>
        <DataArray type="Float64" Name="Velocity" NumberOfComponents="3" format="ascii" RangeMin="0" RangeMax="0">
          0 0 0 0 0 0
          0 0 0 0 0 0
          0 0 0 0 0 0
          0 0 0 0 0 0
          0 0 0 0 0 0
          0 0 0 0 0 0
        </DataArray>
        <DataArray type="Float64" Name="Weighted_Volume" format="ascii" RangeMin="12" RangeMax="20">
          12 20 12 12 20 12
          12 20 12 12 20 12
        </DataArray>
      </PointData>
      <CellData>
      </CellData>
      <Points>
        <DataArray type="Float64" Name="Points" NumberOfComponents="3" format="ascii" RangeMin="0.70710678119" RangeMax="1.2247448714">
          -1 -0.5 -0.5 0 -0.5 -0.5
          1 -0.5 -0.5 -1 0.5 -0.5
          0 0.5 -0.5 1 0.5 -0.5
          -1 -0.5 0.5 0 -0.5 0.5
          1 -0.5 0.5 -1 0.5 0.5
          0 0.5 0.5 1 0.5 0.5
        </DataArray>
      </Points>
      <Cells>
        <DataArray type="Int64" Name="connectivity" format="ascii" RangeMin="0" RangeMax="11">
          0 1 2 3 4 5
          6 7 8 9 10 11
        </DataArray>
        <DataArray type="Int64" Name="offsets" format="ascii" RangeMin="1" RangeMax="12">
          1 2 3 4 5 6
          7 8 9 10 11 12
        </DataArray>
        <DataArray type="UInt8" Name="types" format="ascii" RangeMin="1" RangeMax="1">
          1 1 1 1 1 1
          1 1 1 1 1 1
        </DataArray>
      </Cells>
    </Piece>
  </UnstructuredGrid>
</VTKFile>
