<?xml version="1.0"?>
<VTKFile type="UnstructuredGrid" version="0.1" byte_order="LittleEndian" compressor="vtkZLibDataCompressor">
  <UnstructuredGrid>
    <Piece NumberOfPoints="12" NumberOfCells="12">
      <PointData>
        <DataArray type="Float64" Name="Dilatation" format="ascii" RangeMin="-0.02317320673" RangeMax="-0.020465576817">
          -0.02317320673 -0.020465576817 -0.02317320673 -0.02317320673 -0.020465576817 -0.02317320673
          -0.02317320673 -0.020465576817 -0.02317320673 -0.02317320673 -0.020465576817 -0.02317320673
        </DataArray>
        <DataArray type="Float64" Name="Displacement" NumberOfComponents="3" format="ascii" RangeMin="0" RangeMax="0.10030244996">
          0 0 0 -0.04984586669 -0.01002592043 -0.01002592043
          -0.09969173338 -2.7186503339e-16 -9.0369008662e-19 0 0.0078147220961 0
          -0.04984586669 0.017840642526 -0.01002592043 -0.09969173338 0.0078147220961 -6.368430369e-17
          0 0 0.0078147220961 -0.04984586669 -0.01002592043 0.017840642526
          -0.09969173338 -4.1830763675e-17 0.0078147220961 0 0.0078147220961 0.0078147220961
          -0.04984586669 0.017840642526 0.017840642526 -0.09969173338 0.0078147220961 0.0078147220961
        </DataArray>
        <DataArray type="Float64" Name="Force_Density" NumberOfComponents="3" format="ascii" RangeMin="5.7004951108e-05" RangeMax="13020536713">
          -13020536713 2.9176473618e-05 2.7805566788e-05 -8.3684921265e-05 3.6478042603e-05 1.2934207916e-05
          13020536713 -3.5762786865e-06 -2.8610229492e-06 -13020536713 -5.2113085985e-05 2.8729438782e-05
          -4.1007995605e-05 -5.72334975e-05 8.225440979e-05 13020536713 2.7491013469e-05 2.3365020752e-05
          -13020536713 4.8398971558e-05 -4.7944486141e-05 4.1007995605e-05 -5.9604644775e-05 7.1749091148e-06
          13020536713 1.6927719116e-05 -1.7440180243e-05 -13020536713 -2.0943582058e-05 -7.4092298746e-05
          2.384185791e-05 3.1478703022e-05 -4.1112303734e-05 13020536713 3.6582350731e-06 1.3634562492e-06
        </DataArray>
        <DataArray type="Int32" Name="ID" format="ascii" RangeMin="0" RangeMax="11">
          0 1 2 3 4 5
          6 7 8 9 10 11
        </DataArray>
        <DataArray type="Int32" Name="Proc_Num" format="ascii" RangeMin="0" RangeMax="0">
          0 0 0 0 0 0
          0 0 0 0 0 0
        </DataArray>
        <DataArray type="Float64" Name="Velocity" NumberOfComponents="3" format="ascii" RangeMin="0" RangeMax="742.30841827">
          0 0 0 -369.15972318 -77.288542014 -77.288542014
          -738.31944635 -3.8301327217e-10 -2.4749741845e-10 0 54.342354445 0
          -369.15972318 131.63089646 -77.288542014 -738.31944635 54.342354445 -2.2601500188e-10
          0 0 54.342354445 -369.15972318 -77.288542014 131.63089646
          -738.31944635 -8.8326149213e-11 54.342354445 0 54.342354445 54.342354445
          -369.15972318 131.63089646 131.63089646 -738.31944635 54.342354445 54.342354445
        </DataArray>
        <DataArray type="Float64" Name="Weighted_Volume" format="ascii" RangeMin="12" RangeMax="20">
          12 20 12 12 20 12
          12 20 12 12 20 12
        </DataArray>
      </PointData>
      <CellData>
      </CellData>
      <Points>
        <DataArray type="Float64" Name="Points" NumberOfComponents="3" format="ascii" RangeMin="0.70710678119" RangeMax="1.2247448714">
          -1 -0.5 -0.5 0 -0.5 -0.5
          1 -0.5 -0.5 -1 0.5 -0.5
          0 0.5 -0.5 1 0.5 -0.5
          -1 -0.5 0.5 0 -0.5 0.5
          1 -0.5 0.5 -1 0.5 0.5
          0 0.5 0.5 1 0.5 0.5
        </DataArray>
      </Points>
      <Cells>
        <DataArray type="Int64" Name="connectivity" format="ascii" RangeMin="0" RangeMax="11">
          0 1 2 3 4 5
          6 7 8 9 10 11
        </DataArray>
        <DataArray type="Int64" Name="offsets" format="ascii" RangeMin="1" RangeMax="12">
          1 2 3 4 5 6
          7 8 9 10 11 12
        </DataArray>
        <DataArray type="UInt8" Name="types" format="ascii" RangeMin="1" RangeMax="1">
          1 1 1 1 1 1
          1 1 1 1 1 1
        </DataArray>
      </Cells>
    </Piece>
  </UnstructuredGrid>
</VTKFile>
