<?xml version="1.0"?>
<VTKFile type="UnstructuredGrid" version="0.1" byte_order="LittleEndian" compressor="vtkZLibDataCompressor">
  <UnstructuredGrid>
    <Piece NumberOfPoints="12" NumberOfCells="12">
      <PointData>
        <DataArray type="Float64" Name="Dilatation" format="ascii" RangeMin="-0.070957040875" RangeMax="-0.055198306784">
          -0.070957040875 -0.055198306784 -0.070957040875 -0.070957040875 -0.055198306784 -0.070957040875
          -0.070957040875 -0.055198306784 -0.070957040875 -0.070957040875 -0.055198306784 -0.070957040875
        </DataArray>
        <DataArray type="Float64" Name="Displacement" NumberOfComponents="3" format="ascii" RangeMin="0" RangeMax="0.31902631888">
          0 0 0 -0.15882767733 -0.035403952103 -0.035403952103
          -0.31765535465 7.8325118403e-17 -8.340254085e-17 0 0.020891000429 0
          -0.15882767733 0.056294952533 -0.035403952103 -0.31765535465 0.020891000429 -5.0532235042e-17
          0 0 0.020891000429 -0.15882767733 -0.035403952103 0.056294952533
          -0.31765535465 1.0822639697e-16 0.020891000429 0 0.020891000429 0.020891000429
          -0.15882767733 0.056294952533 0.056294952533 -0.31765535465 0.020891000429 0.020891000429
        </DataArray>
        <DataArray type="Float64" Name="Force_Density" NumberOfComponents="3" format="ascii" RangeMin="7.4139002059e-05" RangeMax="38180676504">
          -38180676504 2.9683113098e-05 -2.384185791e-06 -1.0251998901e-05 -6.2346458435e-05 -7.6532363892e-05
          38180676504 -2.2411346436e-05 -3.1232833862e-05 -38180676504 4.8726797104e-05 5.7220458984e-06
          -6.3419342041e-05 3.6597251892e-05 1.6212463379e-05 38180676504 -2.808868885e-05 2.4795532227e-05
          -38180676504 4.1961669922e-05 2.7522444725e-05 3.6239624023e-05 -1.2397766113e-05 6.3478946686e-05
          38180676504 -1.5735626221e-05 1.7302254865e-05 -38180676504 -5.0067901611e-05 -1.2934207916e-05
          -5.9127807617e-05 1.049041748e-05 -7.2121620178e-05 38180676504 2.2768974304e-05 4.1007995605e-05
        </DataArray>
        <DataArray type="Int32" Name="ID" format="ascii" RangeMin="0" RangeMax="11">
          0 1 2 3 4 5
          6 7 8 9 10 11
        </DataArray>
        <DataArray type="Int32" Name="Proc_Num" format="ascii" RangeMin="0" RangeMax="0">
          0 0 0 0 0 0
          0 0 0 0 0 0
        </DataArray>
        <DataArray type="Float64" Name="Velocity" NumberOfComponents="3" format="ascii" RangeMin="0" RangeMax="0">
          0 0 0 0 0 0
          0 0 0 0 0 0
          0 0 0 0 0 0
          0 0 0 0 0 0
          0 0 0 0 0 0
          0 0 0 0 0 0
        </DataArray>
        <DataArray type="Float64" Name="Weighted_Volume" format="ascii" RangeMin="12" RangeMax="20">
          12 20 12 12 20 12
          12 20 12 12 20 12
        </DataArray>
      </PointData>
      <CellData>
      </CellData>
      <Points>
        <DataArray type="Float64" Name="Points" NumberOfComponents="3" format="ascii" RangeMin="0.70710678119" RangeMax="1.2247448714">
          -1 -0.5 -0.5 0 -0.5 -0.5
          1 -0.5 -0.5 -1 0.5 -0.5
          0 0.5 -0.5 1 0.5 -0.5
          -1 -0.5 0.5 0 -0.5 0.5
          1 -0.5 0.5 -1 0.5 0.5
          0 0.5 0.5 1 0.5 0.5
        </DataArray>
      </Points>
      <Cells>
        <DataArray type="Int64" Name="connectivity" format="ascii" RangeMin="0" RangeMax="11">
          0 1 2 3 4 5
          6 7 8 9 10 11
        </DataArray>
        <DataArray type="Int64" Name="offsets" format="ascii" RangeMin="1" RangeMax="12">
          1 2 3 4 5 6
          7 8 9 10 11 12
        </DataArray>
        <DataArray type="UInt8" Name="types" format="ascii" RangeMin="1" RangeMax="1">
          1 1 1 1 1 1
          1 1 1 1 1 1
        </DataArray>
      </Cells>
    </Piece>
  </UnstructuredGrid>
</VTKFile>
