<?xml version="1.0"?>
<VTKFile type="UnstructuredGrid" version="0.1" byte_order="LittleEndian" compressor="vtkZLibDataCompressor">
  <UnstructuredGrid>
    <Piece NumberOfPoints="12" NumberOfCells="12">
      <PointData>
        <DataArray type="Float64" Name="Dilatation" format="ascii" RangeMin="-0.013782559551" RangeMax="-0.012394713678">
          -0.013782559551 -0.012394713678 -0.013782559551 -0.013782559551 -0.012394713678 -0.013782559551
          -0.013782559551 -0.012394713678 -0.013782559551 -0.013782559551 -0.012394713678 -0.013782559551
        </DataArray>
        <DataArray type="Float64" Name="Displacement" NumberOfComponents="3" format="ascii" RangeMin="0" RangeMax="0.059156432012">
          0 0 0 -0.029389262629 -0.0058139391162 -0.0058139391162
          -0.058778525258 -1.5248825333e-16 -5.8438998824e-19 0 0.0047206152602 0
          -0.029389262629 0.010534554376 -0.0058139391162 -0.058778525258 0.0047206152602 2.2986835843e-16
          0 0 0.0047206152602 -0.029389262629 -0.0058139391162 0.010534554376
          -0.058778525258 -4.9934388093e-17 0.0047206152602 0 0.0047206152602 0.0047206152602
          -0.029389262629 0.010534554376 0.010534554376 -0.058778525258 0.0047206152602 0.0047206152602
        </DataArray>
        <DataArray type="Float64" Name="Force_Density" NumberOfComponents="3" format="ascii" RangeMin="5.7589253092e-05" RangeMax="7790569748.3">
          -7790569748.3 5.3942203522e-06 -2.059340477e-05 -4.3004751205e-05 7.6770782471e-05 0.00010094046593
          7790569748.3 2.1755695343e-05 4.0829181671e-05 -7790569748.3 -6.3960440457e-05 2.1576881409e-05
          -3.4689903259e-05 -0.00012302026153 7.164478302e-05 7790569748.3 8.3772829291e-05 -3.9935112e-05
          -7790569748.3 -6.5565109253e-06 -8.4871891886e-05 -4.3749809265e-05 3.4928321838e-05 -1.3508833945e-05
          7790569748.3 -4.3630599976e-05 -2.3491578665e-05 -7790569748.3 1.9831582904e-05 4.3811276555e-05
          -3.4809112549e-05 -7.9199671745e-06 -5.7179480791e-05 7790569748.3 2.2798776627e-06 -3.9026141167e-05
        </DataArray>
        <DataArray type="Int32" Name="ID" format="ascii" RangeMin="0" RangeMax="11">
          0 1 2 3 4 5
          6 7 8 9 10 11
        </DataArray>
        <DataArray type="Int32" Name="Proc_Num" format="ascii" RangeMin="0" RangeMax="0">
          0 0 0 0 0 0
          0 0 0 0 0 0
        </DataArray>
        <DataArray type="Float64" Name="Velocity" NumberOfComponents="3" format="ascii" RangeMin="0" RangeMax="5254.5697746">
          0 0 0 -2611.467504 -527.3096058 -527.3096058
          -5222.9350079 -1.3048096655e-10 1.0815112126e-10 0 407.09545507 0
          -2611.467504 934.40506087 -527.3096058 -5222.9350079 407.09545507 2.3542928093e-10
          0 0 407.09545507 -2611.467504 -527.3096058 934.40506087
          -5222.9350079 -9.7973028295e-11 407.09545507 0 407.09545507 407.09545507
          -2611.467504 934.40506087 934.40506087 -5222.9350079 407.09545507 407.09545507
        </DataArray>
        <DataArray type="Float64" Name="Weighted_Volume" format="ascii" RangeMin="12" RangeMax="20">
          12 20 12 12 20 12
          12 20 12 12 20 12
        </DataArray>
      </PointData>
      <CellData>
      </CellData>
      <Points>
        <DataArray type="Float64" Name="Points" NumberOfComponents="3" format="ascii" RangeMin="0.70710678119" RangeMax="1.2247448714">
          -1 -0.5 -0.5 0 -0.5 -0.5
          1 -0.5 -0.5 -1 0.5 -0.5
          0 0.5 -0.5 1 0.5 -0.5
          -1 -0.5 0.5 0 -0.5 0.5
          1 -0.5 0.5 -1 0.5 0.5
          0 0.5 0.5 1 0.5 0.5
        </DataArray>
      </Points>
      <Cells>
        <DataArray type="Int64" Name="connectivity" format="ascii" RangeMin="0" RangeMax="11">
          0 1 2 3 4 5
          6 7 8 9 10 11
        </DataArray>
        <DataArray type="Int64" Name="offsets" format="ascii" RangeMin="1" RangeMax="12">
          1 2 3 4 5 6
          7 8 9 10 11 12
        </DataArray>
        <DataArray type="UInt8" Name="types" format="ascii" RangeMin="1" RangeMax="1">
          1 1 1 1 1 1
          1 1 1 1 1 1
        </DataArray>
      </Cells>
    </Piece>
  </UnstructuredGrid>
</VTKFile>
