<?xml version="1.0"?>
<VTKFile type="UnstructuredGrid" version="0.1" byte_order="LittleEndian" compressor="vtkZLibDataCompressor">
  <UnstructuredGrid>
    <Piece NumberOfPoints="12" NumberOfCells="12">
      <PointData>
        <DataArray type="Float64" Name="Dilatation" format="ascii" RangeMin="-0.023173206726" RangeMax="-0.020465576814">
          -0.023173206726 -0.020465576814 -0.023173206726 -0.023173206726 -0.020465576814 -0.023173206726
          -0.023173206726 -0.020465576814 -0.023173206726 -0.023173206726 -0.020465576814 -0.023173206726
        </DataArray>
        <DataArray type="Float64" Name="Displacement" NumberOfComponents="3" format="ascii" RangeMin="0" RangeMax="0.10030244994">
          0 0 0 -0.049845866683 -0.010025920429 -0.010025920429
          -0.099691733366 1.235450648e-16 2.9118619178e-17 0 0.0078147220951 0
          -0.049845866683 0.017840642524 -0.010025920429 -0.099691733366 0.0078147220951 -1.1105980874e-16
          0 0 0.0078147220951 -0.049845866683 -0.010025920429 0.017840642524
          -0.099691733366 -3.1981131477e-16 0.0078147220951 0 0.0078147220951 0.0078147220951
          -0.049845866683 0.017840642524 0.017840642524 -0.099691733366 0.0078147220951 0.0078147220951
        </DataArray>
        <DataArray type="Float64" Name="Force_Density" NumberOfComponents="3" format="ascii" RangeMin="0.0001165516982" RangeMax="13020536711">
          -13020536711 -1.0401010513e-05 -3.5107135773e-05 -3.8146972656e-05 -8.8632106781e-05 -0.00011372566223
          13020536711 -0.00012564659119 -8.2612037659e-05 -13020536711 0.00014512427151 3.4093856812e-05
          -5.3882598877e-05 4.6510249376e-05 0.0001072883606 13020536711 8.4664672613e-05 7.5817108154e-05
          -13020536711 -3.3974647522e-05 0.00014605559409 -2.5272369385e-05 8.3446502686e-06 0.00011347234249
          13020536711 6.9975852966e-05 2.2031483681e-05 -13020536711 -9.923055768e-05 -0.00016946718097
          4.9591064453e-05 -5.2556395531e-05 -0.0001512169838 13020536711 5.4746866226e-05 5.3524971008e-05
        </DataArray>
        <DataArray type="Int32" Name="ID" format="ascii" RangeMin="0" RangeMax="11">
          0 1 2 3 4 5
          6 7 8 9 10 11
        </DataArray>
        <DataArray type="Int32" Name="Proc_Num" format="ascii" RangeMin="0" RangeMax="0">
          0 0 0 0 0 0
          0 0 0 0 0 0
        </DataArray>
        <DataArray type="Float64" Name="Velocity" NumberOfComponents="3" format="ascii" RangeMin="0" RangeMax="0">
          0 0 0 0 0 0
          0 0 0 0 0 0
          0 0 0 0 0 0
          0 0 0 0 0 0
          0 0 0 0 0 0
          0 0 0 0 0 0
        </DataArray>
        <DataArray type="Float64" Name="Weighted_Volume" format="ascii" RangeMin="12" RangeMax="20">
          12 20 12 12 20 12
          12 20 12 12 20 12
        </DataArray>
      </PointData>
      <CellData>
      </CellData>
      <Points>
        <DataArray type="Float64" Name="Points" NumberOfComponents="3" format="ascii" RangeMin="0.70710678119" RangeMax="1.2247448714">
          -1 -0.5 -0.5 0 -0.5 -0.5
          1 -0.5 -0.5 -1 0.5 -0.5
          0 0.5 -0.5 1 0.5 -0.5
          -1 -0.5 0.5 0 -0.5 0.5
          1 -0.5 0.5 -1 0.5 0.5
          0 0.5 0.5 1 0.5 0.5
        </DataArray>
      </Points>
      <Cells>
        <DataArray type="Int64" Name="connectivity" format="ascii" RangeMin="0" RangeMax="11">
          0 1 2 3 4 5
          6 7 8 9 10 11
        </DataArray>
        <DataArray type="Int64" Name="offsets" format="ascii" RangeMin="1" RangeMax="12">
          1 2 3 4 5 6
          7 8 9 10 11 12
        </DataArray>
        <DataArray type="UInt8" Name="types" format="ascii" RangeMin="1" RangeMax="1">
          1 1 1 1 1 1
          1 1 1 1 1 1
        </DataArray>
      </Cells>
    </Piece>
  </UnstructuredGrid>
</VTKFile>
