<?xml version="1.0"?>
<VTKFile type="UnstructuredGrid" version="0.1" byte_order="LittleEndian" compressor="vtkZLibDataCompressor">
  <UnstructuredGrid>
    <Piece NumberOfPoints="12" NumberOfCells="12">
      <PointData>
        <DataArray type="Float64" Name="Dilatation" format="ascii" RangeMin="-0.0072904244953" RangeMax="-0.0066326913103">
          -0.0072904244953 -0.0066326913103 -0.0072904244953 -0.0072904244953 -0.0066326913103 -0.0072904244953
          -0.0072904244953 -0.0066326913103 -0.0072904244953 -0.0072904244953 -0.0066326913103 -0.0072904244953
        </DataArray>
        <DataArray type="Float64" Name="Displacement" NumberOfComponents="3" format="ascii" RangeMin="0" RangeMax="0.031106554557">
          0 0 0 -0.015450849643 -0.0030232768548 -0.0030232768548
          -0.030901699286 -1.3964673009e-16 -8.3749190741e-18 0 0.0025201902362 0
          -0.015450849643 0.0055434670911 -0.0030232768548 -0.030901699286 0.0025201902362 7.5603277136e-17
          0 0 0.0025201902362 -0.015450849643 -0.0030232768548 0.0055434670911
          -0.030901699286 -7.0073429682e-17 0.0025201902362 0 0.0025201902362 0.0025201902362
          -0.015450849643 0.0055434670911 0.0055434670911 -0.030901699286 0.0025201902362 0.0025201902362
        </DataArray>
        <DataArray type="Float64" Name="Force_Density" NumberOfComponents="3" format="ascii" RangeMin="4.7564696407e-05" RangeMax="4136408299.7">
          -4136408299.7 -1.1906027794e-05 3.6925077438e-05 2.3692846298e-05 6.8575143814e-05 -4.5597553253e-06
          4136408299.7 4.3123960495e-05 6.7442655563e-05 -4136408299.7 -6.7173154093e-05 -4.3570995331e-05
          4.8756599426e-05 4.5455526561e-06 -5.5432319641e-06 4136408299.7 -3.7203980709e-05 -3.0666589737e-05
          -4136408299.7 6.7710876465e-05 -1.8792925403e-05 2.4318695068e-05 1.8835067749e-05 -6.8407040089e-05
          4136408299.7 3.7014484406e-05 -1.2634728659e-05 -4136408299.7 -1.229904592e-05 9.8233111203e-05
          -2.384185791e-07 -4.37842682e-05 -1.8581748009e-05 4136408299.7 -6.7465007305e-05 1.285225153e-07
        </DataArray>
        <DataArray type="Int32" Name="ID" format="ascii" RangeMin="0" RangeMax="11">
          0 1 2 3 4 5
          6 7 8 9 10 11
        </DataArray>
        <DataArray type="Int32" Name="Proc_Num" format="ascii" RangeMin="0" RangeMax="0">
          0 0 0 0 0 0
          0 0 0 0 0 0
        </DataArray>
        <DataArray type="Float64" Name="Velocity" NumberOfComponents="3" format="ascii" RangeMin="0" RangeMax="5930.7953423">
          0 0 0 2946.657523 585.17363554 585.17363554
          5893.3150459 -2.0075180318e-10 -5.7028780825e-11 0 -470.72877606 0
          2946.657523 -1055.9024116 585.17363554 5893.3150459 -470.72877606 -9.4800260335e-11
          0 0 -470.72877606 2946.657523 585.17363554 -1055.9024116
          5893.3150459 -8.4158533592e-11 -470.72877606 0 -470.72877606 -470.72877606
          2946.657523 -1055.9024116 -1055.9024116 5893.3150459 -470.72877606 -470.72877606
        </DataArray>
        <DataArray type="Float64" Name="Weighted_Volume" format="ascii" RangeMin="12" RangeMax="20">
          12 20 12 12 20 12
          12 20 12 12 20 12
        </DataArray>
      </PointData>
      <CellData>
      </CellData>
      <Points>
        <DataArray type="Float64" Name="Points" NumberOfComponents="3" format="ascii" RangeMin="0.70710678119" RangeMax="1.2247448714">
          -1 -0.5 -0.5 0 -0.5 -0.5
          1 -0.5 -0.5 -1 0.5 -0.5
          0 0.5 -0.5 1 0.5 -0.5
          -1 -0.5 0.5 0 -0.5 0.5
          1 -0.5 0.5 -1 0.5 0.5
          0 0.5 0.5 1 0.5 0.5
        </DataArray>
      </Points>
      <Cells>
        <DataArray type="Int64" Name="connectivity" format="ascii" RangeMin="0" RangeMax="11">
          0 1 2 3 4 5
          6 7 8 9 10 11
        </DataArray>
        <DataArray type="Int64" Name="offsets" format="ascii" RangeMin="1" RangeMax="12">
          1 2 3 4 5 6
          7 8 9 10 11 12
        </DataArray>
        <DataArray type="UInt8" Name="types" format="ascii" RangeMin="1" RangeMax="1">
          1 1 1 1 1 1
          1 1 1 1 1 1
        </DataArray>
      </Cells>
    </Piece>
  </UnstructuredGrid>
</VTKFile>
