<?xml version="1.0"?>
<VTKFile type="UnstructuredGrid" version="0.1" byte_order="LittleEndian" compressor="vtkZLibDataCompressor">
  <UnstructuredGrid>
    <Piece NumberOfPoints="12" NumberOfCells="12">
      <PointData>
        <DataArray type="Float64" Name="Dilatation" format="ascii" RangeMin="-0.012269119396" RangeMax="-0.011064228321">
          -0.012269119396 -0.011064228321 -0.012269119396 -0.012269119396 -0.011064228321 -0.012269119396
          -0.012269119396 -0.011064228321 -0.012269119396 -0.012269119396 -0.011064228321 -0.012269119396
        </DataArray>
        <DataArray type="Float64" Name="Displacement" NumberOfComponents="3" format="ascii" RangeMin="0" RangeMax="0.052588260057">
          0 0 0 -0.026124928174 -0.0051548020938 -0.0051548020938
          -0.052249856347 -1.002206333e-16 9.7803179743e-17 0 0.0042117459296 0
          -0.026124928174 0.0093665480233 -0.0051548020938 -0.052249856347 0.0042117459296 -1.1681534765e-16
          0 0 0.0042117459296 -0.026124928174 -0.0051548020938 0.0093665480233
          -0.052249856347 9.0603171343e-17 0.0042117459296 0 0.0042117459296 0.0042117459296
          -0.026124928174 0.0093665480233 0.0093665480233 -0.052249856347 0.0042117459296 0.0042117459296
        </DataArray>
        <DataArray type="Float64" Name="Force_Density" NumberOfComponents="3" format="ascii" RangeMin="3.213105232e-05" RangeMax="6941358981.8">
          -6941358981.8 -3.7044286728e-05 3.0905008316e-05 -6.577372551e-05 2.3245811462e-06 3.0398368835e-06
          6941358981.8 -2.4616718292e-05 -2.4318695068e-05 -6941358981.8 4.2315106839e-05 2.9802322388e-07
          5.9604644775e-07 2.3692380637e-05 -2.1696090698e-05 6941358981.8 2.4426728487e-05 -5.3644180298e-07
          -6941358981.8 5.3644180298e-07 -1.2177042663e-06 -6.6518783569e-05 2.1457672119e-06 -1.4849938452e-06
          6941358981.8 -6.7293643951e-05 2.3964096406e-05 -6941358981.8 -3.1121075153e-05 -6.4531341195e-06
          -4.1484832764e-05 -2.5629997253e-06 -2.6235356927e-05 6941358981.8 6.7386776209e-05 2.3661181331e-05
        </DataArray>
        <DataArray type="Int32" Name="ID" format="ascii" RangeMin="0" RangeMax="11">
          0 1 2 3 4 5
          6 7 8 9 10 11
        </DataArray>
        <DataArray type="Int32" Name="Proc_Num" format="ascii" RangeMin="0" RangeMax="0">
          0 0 0 0 0 0
          0 0 0 0 0 0
        </DataArray>
        <DataArray type="Float64" Name="Velocity" NumberOfComponents="3" format="ascii" RangeMin="0" RangeMax="0">
          0 0 0 0 0 0
          0 0 0 0 0 0
          0 0 0 0 0 0
          0 0 0 0 0 0
          0 0 0 0 0 0
          0 0 0 0 0 0
        </DataArray>
        <DataArray type="Float64" Name="Weighted_Volume" format="ascii" RangeMin="12" RangeMax="20">
          12 20 12 12 20 12
          12 20 12 12 20 12
        </DataArray>
      </PointData>
      <CellData>
      </CellData>
      <Points>
        <DataArray type="Float64" Name="Points" NumberOfComponents="3" format="ascii" RangeMin="0.70710678119" RangeMax="1.2247448714">
          -1 -0.5 -0.5 0 -0.5 -0.5
          1 -0.5 -0.5 -1 0.5 -0.5
          0 0.5 -0.5 1 0.5 -0.5
          -1 -0.5 0.5 0 -0.5 0.5
          1 -0.5 0.5 -1 0.5 0.5
          0 0.5 0.5 1 0.5 0.5
        </DataArray>
      </Points>
      <Cells>
        <DataArray type="Int64" Name="connectivity" format="ascii" RangeMin="0" RangeMax="11">
          0 1 2 3 4 5
          6 7 8 9 10 11
        </DataArray>
        <DataArray type="Int64" Name="offsets" format="ascii" RangeMin="1" RangeMax="12">
          1 2 3 4 5 6
          7 8 9 10 11 12
        </DataArray>
        <DataArray type="UInt8" Name="types" format="ascii" RangeMin="1" RangeMax="1">
          1 1 1 1 1 1
          1 1 1 1 1 1
        </DataArray>
      </Cells>
    </Piece>
  </UnstructuredGrid>
</VTKFile>
