<?xml version="1.0"?>
<VTKFile type="UnstructuredGrid" version="0.1" byte_order="LittleEndian" compressor="vtkZLibDataCompressor">
  <UnstructuredGrid>
    <Piece NumberOfPoints="12" NumberOfCells="12">
      <PointData>
        <DataArray type="Float64" Name="Dilatation" format="ascii" RangeMin="-0.015208137553" RangeMax="-0.013640643881">
          -0.015208137553 -0.013640643881 -0.015208137553 -0.015208137553 -0.013640643881 -0.015208137553
          -0.015208137553 -0.013640643881 -0.015208137553 -0.015208137553 -0.013640643881 -0.015208137553
        </DataArray>
        <DataArray type="Float64" Name="Displacement" NumberOfComponents="3" format="ascii" RangeMin="0" RangeMax="0.065359436857">
          0 0 0 -0.032472402432 -0.0064396914135 -0.0064396914135
          -0.064944804863 -7.1452261004e-17 -2.8758365236e-17 0 0.0051975141898 0
          -0.032472402432 0.011637205603 -0.0064396914135 -0.064944804863 0.0051975141898 -1.8384153816e-17
          0 0 0.0051975141898 -0.032472402432 -0.0064396914135 0.011637205603
          -0.064944804863 1.1842588662e-16 0.0051975141898 0 0.0051975141898 0.0051975141898
          -0.032472402432 0.011637205603 0.011637205603 -0.064944804863 0.0051975141898 0.0051975141898
        </DataArray>
        <DataArray type="Float64" Name="Force_Density" NumberOfComponents="3" format="ascii" RangeMin="2.6554296378e-05" RangeMax="8588943924.8">
          -8588943924.8 2.2947788239e-06 3.308057785e-06 3.5464763641e-05 4.768371582e-06 2.8729438782e-05
          8588943924.8 3.2722949982e-05 3.3438205719e-05 -8588943924.8 -3.3272895962e-05 3.3497810364e-05
          -1.9311904907e-05 1.5306286514e-05 9.8943710327e-06 8588943924.8 -3.6972594839e-06 3.2782554626e-06
          -8588943924.8 -1.0371208191e-05 -3.2204203308e-05 4.0173530579e-05 6.9141387939e-06 -3.2264739275e-05
          8588943924.8 -1.7404556274e-05 1.7871523408e-05 -8588943924.8 8.3798542619e-05 1.7756596208e-05
          1.5735626221e-05 -4.7858804464e-05 -5.0034373999e-05 8588943924.8 -3.3501535654e-05 -3.3352524042e-05
        </DataArray>
        <DataArray type="Int32" Name="ID" format="ascii" RangeMin="0" RangeMax="11">
          0 1 2 3 4 5
          6 7 8 9 10 11
        </DataArray>
        <DataArray type="Int32" Name="Proc_Num" format="ascii" RangeMin="0" RangeMax="0">
          0 0 0 0 0 0
          0 0 0 0 0 0
        </DataArray>
        <DataArray type="Float64" Name="Velocity" NumberOfComponents="3" format="ascii" RangeMin="0" RangeMax="0">
          0 0 0 0 0 0
          0 0 0 0 0 0
          0 0 0 0 0 0
          0 0 0 0 0 0
          0 0 0 0 0 0
          0 0 0 0 0 0
        </DataArray>
        <DataArray type="Float64" Name="Weighted_Volume" format="ascii" RangeMin="12" RangeMax="20">
          12 20 12 12 20 12
          12 20 12 12 20 12
        </DataArray>
      </PointData>
      <CellData>
      </CellData>
      <Points>
        <DataArray type="Float64" Name="Points" NumberOfComponents="3" format="ascii" RangeMin="0.70710678119" RangeMax="1.2247448714">
          -1 -0.5 -0.5 0 -0.5 -0.5
          1 -0.5 -0.5 -1 0.5 -0.5
          0 0.5 -0.5 1 0.5 -0.5
          -1 -0.5 0.5 0 -0.5 0.5
          1 -0.5 0.5 -1 0.5 0.5
          0 0.5 0.5 1 0.5 0.5
        </DataArray>
      </Points>
      <Cells>
        <DataArray type="Int64" Name="connectivity" format="ascii" RangeMin="0" RangeMax="11">
          0 1 2 3 4 5
          6 7 8 9 10 11
        </DataArray>
        <DataArray type="Int64" Name="offsets" format="ascii" RangeMin="1" RangeMax="12">
          1 2 3 4 5 6
          7 8 9 10 11 12
        </DataArray>
        <DataArray type="UInt8" Name="types" format="ascii" RangeMin="1" RangeMax="1">
          1 1 1 1 1 1
          1 1 1 1 1 1
        </DataArray>
      </Cells>
    </Piece>
  </UnstructuredGrid>
</VTKFile>
