<?xml version="1.0"?>
<VTKFile type="UnstructuredGrid" version="0.1" byte_order="LittleEndian" compressor="vtkZLibDataCompressor">
  <UnstructuredGrid>
    <Piece NumberOfPoints="12" NumberOfCells="12">
      <PointData>
        <DataArray type="Float64" Name="Dilatation" format="ascii" RangeMin="-0.015208137553" RangeMax="-0.013640643881">
          -0.015208137553 -0.013640643881 -0.015208137553 -0.015208137553 -0.013640643881 -0.015208137553
          -0.015208137553 -0.013640643881 -0.015208137553 -0.015208137553 -0.013640643881 -0.015208137553
        </DataArray>
        <DataArray type="Float64" Name="Displacement" NumberOfComponents="3" format="ascii" RangeMin="0" RangeMax="0.065359436857">
          0 0 0 -0.032472402432 -0.0064396914135 -0.0064396914135
          -0.064944804863 1.1925750744e-16 -2.0128367687e-16 0 0.0051975141898 0
          -0.032472402432 0.011637205603 -0.0064396914135 -0.064944804863 0.0051975141898 7.6727438618e-17
          0 0 0.0051975141898 -0.032472402432 -0.0064396914135 0.011637205603
          -0.064944804863 -6.7148385821e-17 0.0051975141898 0 0.0051975141898 0.0051975141898
          -0.032472402432 0.011637205603 0.011637205603 -0.064944804863 0.0051975141898 0.0051975141898
        </DataArray>
        <DataArray type="Float64" Name="Force_Density" NumberOfComponents="3" format="ascii" RangeMin="4.6853383503e-05" RangeMax="8588943924.8">
          -8588943924.8 3.3050775528e-05 8.9406967163e-06 -1.6987323761e-05 3.1113624573e-05 3.0636787415e-05
          8588943924.8 -1.6272068024e-05 -1.7821788788e-05 -8588943924.8 -1.4270655811e-05 -1.2040138245e-05
          -2.6941299438e-05 7.3667615652e-06 -8.4280967712e-05 8588943924.8 -2.4178045411e-06 -6.5445899963e-05
          -8588943924.8 3.3497810364e-05 -3.2092444599e-05 6.0439109802e-05 -7.6293945312e-06 3.1661242247e-05
          8588943924.8 -1.7166137695e-05 1.7198359461e-05 -8588943924.8 -3.3071264625e-05 -3.1938776374e-05
          -3.5285949707e-05 -1.1101365089e-05 8.949637413e-05 8588943924.8 -2.5182962418e-06 6.5639615059e-05
        </DataArray>
        <DataArray type="Int32" Name="ID" format="ascii" RangeMin="0" RangeMax="11">
          0 1 2 3 4 5
          6 7 8 9 10 11
        </DataArray>
        <DataArray type="Int32" Name="Proc_Num" format="ascii" RangeMin="0" RangeMax="0">
          0 0 0 0 0 0
          0 0 0 0 0 0
        </DataArray>
        <DataArray type="Float64" Name="Velocity" NumberOfComponents="3" format="ascii" RangeMin="0" RangeMax="4962.4425824">
          0 0 0 -2466.5118422 -500.60183784 -500.60183785
          -4933.0236843 2.1739660861e-10 -1.6055942951e-10 0 381.51914362 0
          -2466.5118422 882.12098147 -500.60183785 -4933.0236843 381.51914362 -1.2251273585e-10
          0 0 381.51914362 -2466.5118422 -500.60183784 882.12098147
          -4933.0236843 -1.3771198183e-11 381.51914362 0 381.51914362 381.51914362
          -2466.5118422 882.12098147 882.12098147 -4933.0236843 381.51914362 381.51914362
        </DataArray>
        <DataArray type="Float64" Name="Weighted_Volume" format="ascii" RangeMin="12" RangeMax="20">
          12 20 12 12 20 12
          12 20 12 12 20 12
        </DataArray>
      </PointData>
      <CellData>
      </CellData>
      <Points>
        <DataArray type="Float64" Name="Points" NumberOfComponents="3" format="ascii" RangeMin="0.70710678119" RangeMax="1.2247448714">
          -1 -0.5 -0.5 0 -0.5 -0.5
          1 -0.5 -0.5 -1 0.5 -0.5
          0 0.5 -0.5 1 0.5 -0.5
          -1 -0.5 0.5 0 -0.5 0.5
          1 -0.5 0.5 -1 0.5 0.5
          0 0.5 0.5 1 0.5 0.5
        </DataArray>
      </Points>
      <Cells>
        <DataArray type="Int64" Name="connectivity" format="ascii" RangeMin="0" RangeMax="11">
          0 1 2 3 4 5
          6 7 8 9 10 11
        </DataArray>
        <DataArray type="Int64" Name="offsets" format="ascii" RangeMin="1" RangeMax="12">
          1 2 3 4 5 6
          7 8 9 10 11 12
        </DataArray>
        <DataArray type="UInt8" Name="types" format="ascii" RangeMin="1" RangeMax="1">
          1 1 1 1 1 1
          1 1 1 1 1 1
        </DataArray>
      </Cells>
    </Piece>
  </UnstructuredGrid>
</VTKFile>
