<?xml version="1.0"?>
<VTKFile type="UnstructuredGrid" version="0.1" byte_order="LittleEndian" compressor="vtkZLibDataCompressor">
  <UnstructuredGrid>
    <Piece NumberOfPoints="12" NumberOfCells="12">
      <PointData>
        <DataArray type="Float64" Name="Dilatation" format="ascii" RangeMin="-0.023243366841" RangeMax="-0.020524626456">
          -0.023243366841 -0.020524626456 -0.023243366841 -0.023243366841 -0.020524626456 -0.023243366841
          -0.023243366841 -0.020524626456 -0.023243366841 -0.023243366841 -0.020524626456 -0.023243366841
        </DataArray>
        <DataArray type="Float64" Name="Displacement" NumberOfComponents="3" format="ascii" RangeMin="0" RangeMax="0.10061237207">
          0 0 0 -0.05 -0.010058207245 -0.010058207245
          -0.1 -5.4680025402e-17 -1.1349211396e-16 0 0.0078373915671 0
          -0.05 0.017895598812 -0.010058207245 -0.1 0.0078373915671 -9.4327438503e-17
          0 0 0.0078373915671 -0.05 -0.010058207245 0.017895598812
          -0.1 -7.8735852265e-17 0.0078373915671 0 0.0078373915671 0.0078373915671
          -0.05 0.017895598812 0.017895598812 -0.1 0.0078373915671 0.0078373915671
        </DataArray>
        <DataArray type="Float64" Name="Force_Density" NumberOfComponents="3" format="ascii" RangeMin="5.3688390589e-05" RangeMax="13059341179">
          -13059341179 -1.6659498215e-05 -1.4156103134e-05 -2.6226043701e-06 -7.1942806244e-05 -7.4326992035e-05
          13059341179 -1.6808509827e-05 -1.5497207642e-05 -13059341179 1.4785677195e-05 -1.3589859009e-05
          -2.6941299438e-05 5.716085434e-05 1.8358230591e-05 13059341179 1.4374032617e-05 -1.4901161194e-05
          -13059341179 -1.585483551e-05 1.6828998923e-05 3.5762786865e-06 -2.9325485229e-05 5.372799933e-05
          13059341179 -1.585483551e-05 1.6683354153e-05 -13059341179 1.5806406736e-05 -9.048730135e-06
          -2.8610229492e-06 4.9062073231e-05 2.1614134312e-05 13059341179 1.4580786228e-05 1.4908611774e-05
        </DataArray>
        <DataArray type="Int32" Name="ID" format="ascii" RangeMin="0" RangeMax="11">
          0 1 2 3 4 5
          6 7 8 9 10 11
        </DataArray>
        <DataArray type="Int32" Name="Proc_Num" format="ascii" RangeMin="0" RangeMax="0">
          0 0 0 0 0 0
          0 0 0 0 0 0
        </DataArray>
        <DataArray type="Float64" Name="Velocity" NumberOfComponents="3" format="ascii" RangeMin="0" RangeMax="247.94337276">
          0 0 0 -123.30664804 -25.829451386 -25.829451387
          -246.61329608 1.7374800639e-10 -9.0070739098e-11 0 18.135576854 0
          -123.30664804 43.96502824 -25.829451387 -246.61329608 18.135576854 -2.451450785e-11
          0 0 18.135576854 -123.30664804 -25.829451387 43.96502824
          -246.61329608 -2.9524070872e-11 18.135576854 0 18.135576854 18.135576854
          -123.30664804 43.96502824 43.96502824 -246.61329608 18.135576854 18.135576854
        </DataArray>
        <DataArray type="Float64" Name="Weighted_Volume" format="ascii" RangeMin="12" RangeMax="20">
          12 20 12 12 20 12
          12 20 12 12 20 12
        </DataArray>
      </PointData>
      <CellData>
      </CellData>
      <Points>
        <DataArray type="Float64" Name="Points" NumberOfComponents="3" format="ascii" RangeMin="0.70710678119" RangeMax="1.2247448714">
          -1 -0.5 -0.5 0 -0.5 -0.5
          1 -0.5 -0.5 -1 0.5 -0.5
          0 0.5 -0.5 1 0.5 -0.5
          -1 -0.5 0.5 0 -0.5 0.5
          1 -0.5 0.5 -1 0.5 0.5
          0 0.5 0.5 1 0.5 0.5
        </DataArray>
      </Points>
      <Cells>
        <DataArray type="Int64" Name="connectivity" format="ascii" RangeMin="0" RangeMax="11">
          0 1 2 3 4 5
          6 7 8 9 10 11
        </DataArray>
        <DataArray type="Int64" Name="offsets" format="ascii" RangeMin="1" RangeMax="12">
          1 2 3 4 5 6
          7 8 9 10 11 12
        </DataArray>
        <DataArray type="UInt8" Name="types" format="ascii" RangeMin="1" RangeMax="1">
          1 1 1 1 1 1
          1 1 1 1 1 1
        </DataArray>
      </Cells>
    </Piece>
  </UnstructuredGrid>
</VTKFile>
