<?xml version="1.0"?>
<VTKFile type="UnstructuredGrid" version="0.1" byte_order="LittleEndian" compressor="vtkZLibDataCompressor">
  <UnstructuredGrid>
    <Piece NumberOfPoints="12" NumberOfCells="12">
      <PointData>
        <DataArray type="Float64" Name="Dilatation" format="ascii" RangeMin="-0.018880108257" RangeMax="-0.016816335194">
          -0.018880108257 -0.016816335194 -0.018880108257 -0.018880108257 -0.016816335194 -0.018880108257
          -0.018880108257 -0.016816335194 -0.018880108257 -0.018880108257 -0.016816335194 -0.018880108257
        </DataArray>
        <DataArray type="Float64" Name="Displacement" NumberOfComponents="3" format="ascii" RangeMin="0" RangeMax="0.081408693712">
          0 0 0 -0.040450849682 -0.0080737228226 -0.0080737228226
          -0.080901699365 4.3533505625e-16 -3.1644231004e-17 0 0.0064144544537 0
          -0.040450849682 0.014488177276 -0.0080737228226 -0.080901699365 0.0064144544537 3.3736005041e-16
          0 0 0.0064144544537 -0.040450849682 -0.0080737228226 0.014488177276
          -0.080901699365 -2.3521283923e-16 0.0064144544537 0 0.0064144544537 0.0064144544537
          -0.040450849682 0.014488177276 0.014488177276 -0.080901699365 0.0064144544537 0.0064144544537
        </DataArray>
        <DataArray type="Float64" Name="Force_Density" NumberOfComponents="3" format="ascii" RangeMin="7.6912814891e-05" RangeMax="10638260064">
          -10638260064 -2.9146671295e-05 0.00013881921768 4.380941391e-05 4.3749809265e-05 -0.00014740228653
          10638260064 1.4305114746e-05 0.00010848045349 -10638260064 0.00011485163122 -7.0214271545e-05
          -0.00025486946106 -7.2706490755e-05 0 10638260064 -6.1687008086e-05 -9.8586082458e-05
          -10638260064 0.00018036365509 -0.00013469625264 4.4822692871e-05 -0.00012302398682 -1.1527910829e-05
          10638260064 0.00023102760315 5.8216974139e-05 -10638260064 -5.3625553846e-05 0.00011481717229
          -2.384185791e-05 -5.5264681578e-05 -4.7884881496e-05 10638260064 -0.00018898397684 9.0248882771e-05
        </DataArray>
        <DataArray type="Int32" Name="ID" format="ascii" RangeMin="0" RangeMax="11">
          0 1 2 3 4 5
          6 7 8 9 10 11
        </DataArray>
        <DataArray type="Int32" Name="Proc_Num" format="ascii" RangeMin="0" RangeMax="0">
          0 0 0 0 0 0
          0 0 0 0 0 0
        </DataArray>
        <DataArray type="Float64" Name="Velocity" NumberOfComponents="3" format="ascii" RangeMin="0" RangeMax="3509.5628421">
          0 0 0 1744.9268033 360.38536333 360.38536333
          3489.8536066 3.2950269159e-10 1.1544398005e-10 0 -262.63391505 0
          1744.9268033 -623.01927838 360.38536333 3489.8536066 -262.63391504 2.1214231844e-10
          0 0 -262.63391504 1744.9268033 360.38536333 -623.01927838
          3489.8536066 -1.9824719607e-10 -262.63391504 0 -262.63391504 -262.63391505
          1744.9268033 -623.01927838 -623.01927838 3489.8536066 -262.63391504 -262.63391505
        </DataArray>
        <DataArray type="Float64" Name="Weighted_Volume" format="ascii" RangeMin="12" RangeMax="20">
          12 20 12 12 20 12
          12 20 12 12 20 12
        </DataArray>
      </PointData>
      <CellData>
      </CellData>
      <Points>
        <DataArray type="Float64" Name="Points" NumberOfComponents="3" format="ascii" RangeMin="0.70710678119" RangeMax="1.2247448714">
          -1 -0.5 -0.5 0 -0.5 -0.5
          1 -0.5 -0.5 -1 0.5 -0.5
          0 0.5 -0.5 1 0.5 -0.5
          -1 -0.5 0.5 0 -0.5 0.5
          1 -0.5 0.5 -1 0.5 0.5
          0 0.5 0.5 1 0.5 0.5
        </DataArray>
      </Points>
      <Cells>
        <DataArray type="Int64" Name="connectivity" format="ascii" RangeMin="0" RangeMax="11">
          0 1 2 3 4 5
          6 7 8 9 10 11
        </DataArray>
        <DataArray type="Int64" Name="offsets" format="ascii" RangeMin="1" RangeMax="12">
          1 2 3 4 5 6
          7 8 9 10 11 12
        </DataArray>
        <DataArray type="UInt8" Name="types" format="ascii" RangeMin="1" RangeMax="1">
          1 1 1 1 1 1
          1 1 1 1 1 1
        </DataArray>
      </Cells>
    </Piece>
  </UnstructuredGrid>
</VTKFile>
