<?xml version="1.0"?>
<VTKFile type="UnstructuredGrid" version="0.1" byte_order="LittleEndian" compressor="vtkZLibDataCompressor">
  <UnstructuredGrid>
    <Piece NumberOfPoints="12" NumberOfCells="12">
      <PointData>
        <DataArray type="Float64" Name="Dilatation" format="ascii" RangeMin="-0.02150835088" RangeMax="-0.01905875663">
          -0.02150835088 -0.01905875663 -0.02150835088 -0.02150835088 -0.01905875663 -0.02150835088
          -0.02150835088 -0.01905875663 -0.02150835088 -0.02150835088 -0.01905875663 -0.02150835088
        </DataArray>
        <DataArray type="Float64" Name="Displacement" NumberOfComponents="3" format="ascii" RangeMin="0" RangeMax="0.09295900804">
          0 0 0 -0.046193976638 -0.0092634164887 -0.0092634164887
          -0.092387953277 3.3561346682e-16 -2.1223062245e-16 0 0.0072747256007 0
          -0.046193976638 0.016538142089 -0.0092634164887 -0.092387953277 0.0072747256007 -1.3163196161e-16
          0 0 0.0072747256007 -0.046193976638 -0.0092634164887 0.016538142089
          -0.092387953277 1.7025765169e-17 0.0072747256007 0 0.0072747256007 0.0072747256007
          -0.046193976638 0.016538142089 0.016538142089 -0.092387953277 0.0072747256007 0.0072747256007
        </DataArray>
        <DataArray type="Float64" Name="Force_Density" NumberOfComponents="3" format="ascii" RangeMin="4.4309990298e-05" RangeMax="12098506231">
          -12098506231 5.5015087128e-05 3.3468008041e-05 1.5735626221e-05 -8.8214874268e-06 4.0471553802e-05
          12098506231 -2.3245811462e-05 -6.7472457886e-05 -12098506231 -6.0833990574e-06 3.2424926758e-05
          -7.176399231e-05 1.5255063772e-06 -2.384185791e-06 12098506231 1.8730240106e-07 2.5153160095e-05
          -12098506231 2.5153160095e-05 -7.4950046837e-05 -4.1961669922e-05 -7.8678131104e-05 2.7101486921e-05
          12098506231 -4.4465065002e-05 6.0663451979e-05 -12098506231 -5.9492886066e-06 -3.0864030123e-05
          4.0054321289e-05 5.8837234974e-05 -3.9778649807e-05 12098506231 2.5428831577e-05 -3.6731362343e-06
        </DataArray>
        <DataArray type="Int32" Name="ID" format="ascii" RangeMin="0" RangeMax="11">
          0 1 2 3 4 5
          6 7 8 9 10 11
        </DataArray>
        <DataArray type="Int32" Name="Proc_Num" format="ascii" RangeMin="0" RangeMax="0">
          0 0 0 0 0 0
          0 0 0 0 0 0
        </DataArray>
        <DataArray type="Float64" Name="Velocity" NumberOfComponents="3" format="ascii" RangeMin="0" RangeMax="2644.3886099">
          0 0 0 -1314.9203318 -273.32414888 -273.32414888
          -2629.8406637 3.6491560521e-10 -3.4712598952e-10 0 195.8688385 0
          -1314.9203318 469.19298738 -273.32414888 -2629.8406637 195.8688385 -1.0583254762e-10
          0 0 195.8688385 -1314.9203318 -273.32414888 469.19298738
          -2629.8406637 2.6686915875e-11 195.8688385 0 195.8688385 195.8688385
          -1314.9203318 469.19298738 469.19298738 -2629.8406637 195.8688385 195.8688385
        </DataArray>
        <DataArray type="Float64" Name="Weighted_Volume" format="ascii" RangeMin="12" RangeMax="20">
          12 20 12 12 20 12
          12 20 12 12 20 12
        </DataArray>
      </PointData>
      <CellData>
      </CellData>
      <Points>
        <DataArray type="Float64" Name="Points" NumberOfComponents="3" format="ascii" RangeMin="0.70710678119" RangeMax="1.2247448714">
          -1 -0.5 -0.5 0 -0.5 -0.5
          1 -0.5 -0.5 -1 0.5 -0.5
          0 0.5 -0.5 1 0.5 -0.5
          -1 -0.5 0.5 0 -0.5 0.5
          1 -0.5 0.5 -1 0.5 0.5
          0 0.5 0.5 1 0.5 0.5
        </DataArray>
      </Points>
      <Cells>
        <DataArray type="Int64" Name="connectivity" format="ascii" RangeMin="0" RangeMax="11">
          0 1 2 3 4 5
          6 7 8 9 10 11
        </DataArray>
        <DataArray type="Int64" Name="offsets" format="ascii" RangeMin="1" RangeMax="12">
          1 2 3 4 5 6
          7 8 9 10 11 12
        </DataArray>
        <DataArray type="UInt8" Name="types" format="ascii" RangeMin="1" RangeMax="1">
          1 1 1 1 1 1
          1 1 1 1 1 1
        </DataArray>
      </Cells>
    </Piece>
  </UnstructuredGrid>
</VTKFile>
