<?xml version="1.0"?>
<VTKFile type="UnstructuredGrid" version="0.1" byte_order="LittleEndian" compressor="vtkZLibDataCompressor">
  <UnstructuredGrid>
    <Piece NumberOfPoints="12" NumberOfCells="12">
      <PointData>
        <DataArray type="Float64" Name="Dilatation" format="ascii" RangeMin="-0.02212840807" RangeMax="-0.019583963598">
          -0.02212840807 -0.019583963598 -0.02212840807 -0.02212840807 -0.019583963598 -0.02212840807
          -0.02212840807 -0.019583963598 -0.02212840807 -0.02212840807 -0.019583963598 -0.02212840807
        </DataArray>
        <DataArray type="Float64" Name="Displacement" NumberOfComponents="3" format="ascii" RangeMin="0" RangeMax="0.095691562321">
          0 0 0 -0.047552825798 -0.0095465885797 -0.0095465885797
          -0.095105651597 2.0999219515e-17 1.3360228429e-16 0 0.0074763003496 0
          -0.047552825798 0.017022888929 -0.0095465885797 -0.095105651597 0.0074763003496 -3.493225348e-17
          0 0 0.0074763003496 -0.047552825798 -0.0095465885797 0.017022888929
          -0.095105651597 2.1051109767e-16 0.0074763003496 0 0.0074763003496 0.0074763003496
          -0.047552825798 0.017022888929 0.017022888929 -0.095105651597 0.0074763003496 0.0074763003496
        </DataArray>
        <DataArray type="Float64" Name="Force_Density" NumberOfComponents="3" format="ascii" RangeMin="4.8412976072e-05" RangeMax="12442179317">
          -12442179317 4.7773122787e-05 4.7296285629e-05 -7.8141689301e-05 4.243850708e-05 1.6510486603e-05
          12442179317 -2.384185791e-06 -2.7656555176e-05 -12442179317 -2.3368746042e-05 -2.384185791e-06
          -1.9788742065e-05 -1.6607344151e-05 4.1246414185e-05 12442179317 -2.689822438e-05 2.8133392334e-05
          -12442179317 5.9127807617e-05 -1.8775463104e-05 -8.1539154053e-05 2.2649765015e-05 2.883374691e-05
          12442179317 2.8014183044e-05 -2.7061908491e-05 -12442179317 -0.0001172721386 -4.8160552979e-05
          -1.9073486328e-05 -1.6584992409e-05 -4.1291117668e-05 12442179317 3.0249357224e-06 3.2484531403e-06
        </DataArray>
        <DataArray type="Int32" Name="ID" format="ascii" RangeMin="0" RangeMax="11">
          0 1 2 3 4 5
          6 7 8 9 10 11
        </DataArray>
        <DataArray type="Int32" Name="Proc_Num" format="ascii" RangeMin="0" RangeMax="0">
          0 0 0 0 0 0
          0 0 0 0 0 0
        </DataArray>
        <DataArray type="Float64" Name="Velocity" NumberOfComponents="3" format="ascii" RangeMin="0" RangeMax="0">
          0 0 0 0 0 0
          0 0 0 0 0 0
          0 0 0 0 0 0
          0 0 0 0 0 0
          0 0 0 0 0 0
          0 0 0 0 0 0
        </DataArray>
        <DataArray type="Float64" Name="Weighted_Volume" format="ascii" RangeMin="12" RangeMax="20">
          12 20 12 12 20 12
          12 20 12 12 20 12
        </DataArray>
      </PointData>
      <CellData>
      </CellData>
      <Points>
        <DataArray type="Float64" Name="Points" NumberOfComponents="3" format="ascii" RangeMin="0.70710678119" RangeMax="1.2247448714">
          -1 -0.5 -0.5 0 -0.5 -0.5
          1 -0.5 -0.5 -1 0.5 -0.5
          0 0.5 -0.5 1 0.5 -0.5
          -1 -0.5 0.5 0 -0.5 0.5
          1 -0.5 0.5 -1 0.5 0.5
          0 0.5 0.5 1 0.5 0.5
        </DataArray>
      </Points>
      <Cells>
        <DataArray type="Int64" Name="connectivity" format="ascii" RangeMin="0" RangeMax="11">
          0 1 2 3 4 5
          6 7 8 9 10 11
        </DataArray>
        <DataArray type="Int64" Name="offsets" format="ascii" RangeMin="1" RangeMax="12">
          1 2 3 4 5 6
          7 8 9 10 11 12
        </DataArray>
        <DataArray type="UInt8" Name="types" format="ascii" RangeMin="1" RangeMax="1">
          1 1 1 1 1 1
          1 1 1 1 1 1
        </DataArray>
      </Cells>
    </Piece>
  </UnstructuredGrid>
</VTKFile>
