<?xml version="1.0"?>
<VTKFile type="UnstructuredGrid" version="0.1" byte_order="LittleEndian" compressor="vtkZLibDataCompressor">
  <UnstructuredGrid>
    <Piece NumberOfPoints="12" NumberOfCells="12">
      <PointData>
        <DataArray type="Float64" Name="Dilatation" format="ascii" RangeMin="-0.0055168011734" RangeMax="-0.0050343671587">
          -0.0055168011734 -0.0050343671587 -0.0055168011734 -0.0055168011734 -0.0050343671587 -0.0055168011734
          -0.0055168011734 -0.0050343671587 -0.0055168011734 -0.0055168011734 -0.0050343671587 -0.0055168011734
        </DataArray>
        <DataArray type="Float64" Name="Displacement" NumberOfComponents="3" format="ascii" RangeMin="0" RangeMax="0.023500536405">
          0 0 0 -0.011672268113 -0.0022772566635 -0.0022772566635
          -0.023344536226 8.9991048649e-17 8.225256853e-17 0 0.0019115229114 0
          -0.011672268113 0.0041887795749 -0.0022772566635 -0.023344536226 0.0019115229114 1.6678883221e-16
          0 0 0.0019115229114 -0.011672268113 -0.0022772566635 0.0041887795749
          -0.023344536226 1.8302732389e-17 0.0019115229114 0 0.0019115229114 0.0019115229114
          -0.011672268113 0.0041887795749 0.0041887795749 -0.023344536226 0.0019115229114 0.0019115229114
        </DataArray>
        <DataArray type="Float64" Name="Force_Density" NumberOfComponents="3" format="ascii" RangeMin="7.1741421293e-05" RangeMax="3133154014.6">
          -3133154014.6 3.1597912312e-05 4.9866735935e-05 6.5490603447e-05 -3.4719705582e-05 -3.4064054489e-05
          3133154014.6 -2.3663043976e-05 9.5367431641e-07 -3133154014.6 -6.6852080636e-06 5.0008296967e-05
          -6.5863132477e-05 -2.7015339583e-06 2.8312206268e-05 3133154014.6 -2.0779424871e-05 2.1159648895e-05
          -3133154014.6 7.0035457611e-06 -5.0093862228e-05 8.5532665253e-05 2.1874904633e-05 -2.2269319743e-05
          3133154014.6 1.2218952179e-06 -1.0281917057e-06 -3133154014.6 -6.5460335463e-06 -7.4863201007e-05
          6.5565109253e-05 3.3927615732e-05 8.515547961e-06 3133154014.6 -5.8673322201e-07 2.3813452572e-05
        </DataArray>
        <DataArray type="Int32" Name="ID" format="ascii" RangeMin="0" RangeMax="11">
          0 1 2 3 4 5
          6 7 8 9 10 11
        </DataArray>
        <DataArray type="Int32" Name="Proc_Num" format="ascii" RangeMin="0" RangeMax="0">
          0 0 0 0 0 0
          0 0 0 0 0 0
        </DataArray>
        <DataArray type="Float64" Name="Velocity" NumberOfComponents="3" format="ascii" RangeMin="0" RangeMax="0">
          0 0 0 0 0 0
          0 0 0 0 0 0
          0 0 0 0 0 0
          0 0 0 0 0 0
          0 0 0 0 0 0
          0 0 0 0 0 0
        </DataArray>
        <DataArray type="Float64" Name="Weighted_Volume" format="ascii" RangeMin="12" RangeMax="20">
          12 20 12 12 20 12
          12 20 12 12 20 12
        </DataArray>
      </PointData>
      <CellData>
      </CellData>
      <Points>
        <DataArray type="Float64" Name="Points" NumberOfComponents="3" format="ascii" RangeMin="0.70710678119" RangeMax="1.2247448714">
          -1 -0.5 -0.5 0 -0.5 -0.5
          1 -0.5 -0.5 -1 0.5 -0.5
          0 0.5 -0.5 1 0.5 -0.5
          -1 -0.5 0.5 0 -0.5 0.5
          1 -0.5 0.5 -1 0.5 0.5
          0 0.5 0.5 1 0.5 0.5
        </DataArray>
      </Points>
      <Cells>
        <DataArray type="Int64" Name="connectivity" format="ascii" RangeMin="0" RangeMax="11">
          0 1 2 3 4 5
          6 7 8 9 10 11
        </DataArray>
        <DataArray type="Int64" Name="offsets" format="ascii" RangeMin="1" RangeMax="12">
          1 2 3 4 5 6
          7 8 9 10 11 12
        </DataArray>
        <DataArray type="UInt8" Name="types" format="ascii" RangeMin="1" RangeMax="1">
          1 1 1 1 1 1
          1 1 1 1 1 1
        </DataArray>
      </Cells>
    </Piece>
  </UnstructuredGrid>
</VTKFile>
