<?xml version="1.0"?>
<VTKFile type="UnstructuredGrid" version="0.1" byte_order="LittleEndian" compressor="vtkZLibDataCompressor">
  <UnstructuredGrid>
    <Piece NumberOfPoints="12" NumberOfCells="12">
      <PointData>
        <DataArray type="Float64" Name="Dilatation" format="ascii" RangeMin="-0.0023703081217" RangeMax="-0.0021744593208">
          -0.0023703081217 -0.0023703081217 -0.0023703081217 -0.0023703081217 -0.0021744593208 -0.0021744593208
          -0.0021744593208 -0.0021744593208 -0.0023703081217 -0.0023703081217 -0.0023703081217 -0.0023703081217
        </DataArray>
        <DataArray type="Float64" Name="Displacement" NumberOfComponents="3" format="ascii" RangeMin="0" RangeMax="0.010067755779">
          0 0 0.00082453211708 0 0 0
          0 0.00082453211708 0.00082453211708 0 0.00082453211708 0
          -0.005 -0.00097052474622 0.0017950568633 -0.005 -0.00097052474622 -0.00097052474622
          -0.005 0.0017950568633 0.0017950568633 -0.005 0.0017950568633 -0.00097052474622
          -0.01 -1.8729763409e-16 0.00082453211708 -0.01 3.8462328063e-16 -3.3508558205e-16
          -0.01 0.00082453211708 0.00082453211708 -0.01 0.00082453211708 1.4993535743e-16
        </DataArray>
        <DataArray type="Float64" Name="Force_Density" NumberOfComponents="3" format="ascii" RangeMin="5.9539100469e-05" RangeMax="1348431872.6">
          -1348431872.6 -9.3925744295e-05 6.939470768e-05 -1348431872.6 -4.3421983719e-05 -6.7809101893e-05
          -1348431872.6 6.3287589001e-05 1.9952654839e-05 -1348431872.6 0.00011832889868 -2.6202702429e-05
          6.8679451942e-05 -9.7163021564e-05 9.7140669823e-05 -8.9406967163e-08 -0.00012341141701 -7.4112060247e-05
          -2.0861625671e-07 5.8710837038e-05 9.8943710327e-06 -4.4107437134e-06 9.7237469163e-05 -0.00012149300892
          1348431872.6 3.0562281609e-05 -3.0681490898e-05 1348431872.6 -7.3745846748e-05 -6.1930136244e-06
          1348431872.6 5.0675686923e-05 0.00011825561523 1348431872.6 1.2809129195e-05 1.1757016182e-05
        </DataArray>
        <DataArray type="Int32" Name="ID" format="ascii" RangeMin="0" RangeMax="11">
          0 1 2 3 4 5
          6 7 8 9 10 11
        </DataArray>
        <DataArray type="Int32" Name="Proc_Num" format="ascii" RangeMin="0" RangeMax="0">
          0 0 0 0 0 0
          0 0 0 0 0 0
        </DataArray>
        <DataArray type="Float64" Name="Velocity" NumberOfComponents="3" format="ascii" RangeMin="0" RangeMax="0">
          0 0 0 0 0 0
          0 0 0 0 0 0
          0 0 0 0 0 0
          0 0 0 0 0 0
          0 0 0 0 0 0
          0 0 0 0 0 0
        </DataArray>
        <DataArray type="Float64" Name="Weighted_Volume" format="ascii" RangeMin="12" RangeMax="20">
          12 12 12 12 20 20
          20 20 12 12 12 12
        </DataArray>
      </PointData>
      <CellData>
      </CellData>
      <Points>
        <DataArray type="Float64" Name="Points" NumberOfComponents="3" format="ascii" RangeMin="0.70710678119" RangeMax="1.2247448714">
          -1 -0.5 0.5 -1 -0.5 -0.5
          -1 0.5 0.5 -1 0.5 -0.5
          0 -0.5 0.5 0 -0.5 -0.5
          0 0.5 0.5 0 0.5 -0.5
          1 -0.5 0.5 1 -0.5 -0.5
          1 0.5 0.5 1 0.5 -0.5
        </DataArray>
      </Points>
      <Cells>
        <DataArray type="Int64" Name="connectivity" format="ascii" RangeMin="0" RangeMax="11">
          0 1 2 3 4 5
          6 7 8 9 10 11
        </DataArray>
        <DataArray type="Int64" Name="offsets" format="ascii" RangeMin="1" RangeMax="12">
          1 2 3 4 5 6
          7 8 9 10 11 12
        </DataArray>
        <DataArray type="UInt8" Name="types" format="ascii" RangeMin="1" RangeMax="1">
          1 1 1 1 1 1
          1 1 1 1 1 1
        </DataArray>
      </Cells>
    </Piece>
  </UnstructuredGrid>
</VTKFile>
