<?xml version="1.0"?>
<VTKFile type="UnstructuredGrid" version="0.1" byte_order="LittleEndian" compressor="vtkZLibDataCompressor">
  <UnstructuredGrid>
    <Piece NumberOfPoints="12" NumberOfCells="12">
      <PointData>
        <DataArray type="Float64" Name="Dilatation" format="ascii" RangeMin="-0.012907157289" RangeMax="-0.011626102145">
          -0.012907157289 -0.012907157289 -0.012907157289 -0.012907157289 -0.011626102145 -0.011626102145
          -0.011626102145 -0.011626102145 -0.012907157289 -0.012907157289 -0.012907157289 -0.012907157289
        </DataArray>
        <DataArray type="Float64" Name="Displacement" NumberOfComponents="3" format="ascii" RangeMin="0" RangeMax="0.055355121323">
          0 0 0.004426593308 0 0 0
          0 0.004426593308 0.004426593308 0 0.004426593308 0
          -0.0275 -0.0054320354894 0.0098586287974 -0.0275 -0.0054320354894 -0.0054320354894
          -0.0275 0.0098586287974 0.0098586287974 -0.0275 0.0098586287974 -0.0054320354894
          -0.055 -3.0652298605e-16 0.004426593308 -0.055 -4.2780233093e-16 8.2502360114e-17
          -0.055 0.004426593308 0.004426593308 -0.055 0.004426593308 -1.3110596583e-16
        </DataArray>
        <DataArray type="Float64" Name="Force_Density" NumberOfComponents="3" format="ascii" RangeMin="3.5551835309e-05" RangeMax="7299572425.1">
          -7299572425.1 2.4527311325e-05 -2.3245811462e-05 -7299572425.1 -6.4015388489e-05 2.7521979064e-05
          -7299572425.1 -4.7158449888e-05 -2.2888183594e-05 -7299572425.1 -2.4970620871e-05 4.3664127588e-05
          -3.4481287003e-05 3.2067298889e-05 -3.1441450119e-05 9.298324585e-06 3.719329834e-05 -1.223757863e-05
          1.060962677e-05 8.2971528172e-06 3.2901763916e-05 0.00010204315186 -3.1545758247e-05 7.6666474342e-06
          7299572425.1 6.7055225372e-05 -8.9406967163e-07 7299572425.1 4.6670436859e-05 -2.0480199033e-05
          7299572425.1 -2.3853865015e-05 -2.39610672e-05 7299572425.1 -2.4759726352e-05 2.2709369659e-05
        </DataArray>
        <DataArray type="Int32" Name="ID" format="ascii" RangeMin="0" RangeMax="11">
          0 1 2 3 4 5
          6 7 8 9 10 11
        </DataArray>
        <DataArray type="Int32" Name="Proc_Num" format="ascii" RangeMin="0" RangeMax="0">
          0 0 0 0 0 0
          0 0 0 0 0 0
        </DataArray>
        <DataArray type="Float64" Name="Velocity" NumberOfComponents="3" format="ascii" RangeMin="0" RangeMax="2012.2019492">
          0 0 156.45555946 0 0 0
          0 156.45555946 156.45555946 0 156.45555946 0
          -1000 -201.43201713 357.88757659 -1000 -201.43201713 -201.43201713
          -1000 357.88757659 357.88757659 -1000 357.88757659 -201.43201713
          -2000 -6.6867441424e-11 156.45555946 -2000 -2.9035717471e-10 3.7188746223e-11
          -2000 156.45555946 156.45555946 -2000 156.45555946 -1.6422267453e-10
        </DataArray>
        <DataArray type="Float64" Name="Weighted_Volume" format="ascii" RangeMin="12" RangeMax="20">
          12 12 12 12 20 20
          20 20 12 12 12 12
        </DataArray>
      </PointData>
      <CellData>
      </CellData>
      <Points>
        <DataArray type="Float64" Name="Points" NumberOfComponents="3" format="ascii" RangeMin="0.70710678119" RangeMax="1.2247448714">
          -1 -0.5 0.5 -1 -0.5 -0.5
          -1 0.5 0.5 -1 0.5 -0.5
          0 -0.5 0.5 0 -0.5 -0.5
          0 0.5 0.5 0 0.5 -0.5
          1 -0.5 0.5 1 -0.5 -0.5
          1 0.5 0.5 1 0.5 -0.5
        </DataArray>
      </Points>
      <Cells>
        <DataArray type="Int64" Name="connectivity" format="ascii" RangeMin="0" RangeMax="11">
          0 1 2 3 4 5
          6 7 8 9 10 11
        </DataArray>
        <DataArray type="Int64" Name="offsets" format="ascii" RangeMin="1" RangeMax="12">
          1 2 3 4 5 6
          7 8 9 10 11 12
        </DataArray>
        <DataArray type="UInt8" Name="types" format="ascii" RangeMin="1" RangeMax="1">
          1 1 1 1 1 1
          1 1 1 1 1 1
        </DataArray>
      </Cells>
    </Piece>
  </UnstructuredGrid>
</VTKFile>
