<?xml version="1.0"?>
<VTKFile type="UnstructuredGrid" version="0.1" byte_order="LittleEndian" compressor="vtkZLibDataCompressor">
  <UnstructuredGrid>
    <Piece NumberOfPoints="12" NumberOfCells="12">
      <PointData>
        <DataArray type="Float64" Name="Dilatation" format="ascii" RangeMin="-0.010583521371" RangeMax="-0.0095731532627">
          -0.010583521371 -0.010583521371 -0.010583521371 -0.010583521371 -0.0095731532627 -0.0095731532627
          -0.0095731532627 -0.0095731532627 -0.010583521371 -0.010583521371 -0.010583521371 -0.010583521371
        </DataArray>
        <DataArray type="Float64" Name="Displacement" NumberOfComponents="3" format="ascii" RangeMin="0" RangeMax="0.045293797334">
          0 0 0.0036419827646 0 0 0
          0 0.0036419827646 0.0036419827646 0 0.0036419827646 0
          -0.0225 -0.004426885034 0.0080688677986 -0.0225 -0.004426885034 -0.004426885034
          -0.0225 0.0080688677986 0.0080688677986 -0.0225 0.0080688677986 -0.004426885034
          -0.045 -1.648479815e-17 0.0036419827646 -0.045 -1.7673933434e-16 1.2045759032e-16
          -0.045 0.0036419827646 0.0036419827646 -0.045 0.0036419827646 4.2891819142e-17
        </DataArray>
        <DataArray type="Float64" Name="Force_Density" NumberOfComponents="3" format="ascii" RangeMin="4.4759802512e-05" RangeMax="5993621468.4">
          -5993621468.4 1.2427568436e-05 -1.2636184692e-05 -5993621468.4 -3.0636787415e-05 1.2487405911e-05
          -5993621468.4 -3.2224226743e-05 1.0550022125e-05 -5993621468.4 3.0505470932e-05 -3.0596740544e-05
          -4.2676925659e-05 -1.7762184143e-05 4.2825937271e-05 -5.3644180298e-05 -1.4781951904e-05 -1.584040001e-05
          2.384185791e-06 1.5499535948e-05 4.2080879211e-05 7.6293945312e-06 -6.7334622145e-06 -4.3587759137e-05
          5993621468.4 4.3213367462e-05 -1.7881393433e-07 5993621468.4 2.6166439056e-05 -6.5942377232e-05
          5993621468.4 1.7702579498e-05 0.00010406970978 5993621468.4 -4.3332576752e-05 -4.3213367462e-05
        </DataArray>
        <DataArray type="Int32" Name="ID" format="ascii" RangeMin="0" RangeMax="11">
          0 1 2 3 4 5
          6 7 8 9 10 11
        </DataArray>
        <DataArray type="Int32" Name="Proc_Num" format="ascii" RangeMin="0" RangeMax="0">
          0 0 0 0 0 0
          0 0 0 0 0 0
        </DataArray>
        <DataArray type="Float64" Name="Velocity" NumberOfComponents="3" format="ascii" RangeMin="0" RangeMax="2012.4922144">
          0 0 158.31126471 0 0 0
          0 158.31126471 158.31126471 0 158.31126471 0
          -1000 -199.83234082 358.14360554 -1000 -199.83234082 -199.83234082
          -1000 358.14360554 358.14360554 -1000 358.14360554 -199.83234082
          -2000 -6.7002805524e-12 158.31126471 -2000 -4.3567646848e-11 1.2148620577e-10
          -2000 158.31126471 158.31126471 -2000 158.31126471 8.4649176323e-11
        </DataArray>
        <DataArray type="Float64" Name="Weighted_Volume" format="ascii" RangeMin="12" RangeMax="20">
          12 12 12 12 20 20
          20 20 12 12 12 12
        </DataArray>
      </PointData>
      <CellData>
      </CellData>
      <Points>
        <DataArray type="Float64" Name="Points" NumberOfComponents="3" format="ascii" RangeMin="0.70710678119" RangeMax="1.2247448714">
          -1 -0.5 0.5 -1 -0.5 -0.5
          -1 0.5 0.5 -1 0.5 -0.5
          0 -0.5 0.5 0 -0.5 -0.5
          0 0.5 0.5 0 0.5 -0.5
          1 -0.5 0.5 1 -0.5 -0.5
          1 0.5 0.5 1 0.5 -0.5
        </DataArray>
      </Points>
      <Cells>
        <DataArray type="Int64" Name="connectivity" format="ascii" RangeMin="0" RangeMax="11">
          0 1 2 3 4 5
          6 7 8 9 10 11
        </DataArray>
        <DataArray type="Int64" Name="offsets" format="ascii" RangeMin="1" RangeMax="12">
          1 2 3 4 5 6
          7 8 9 10 11 12
        </DataArray>
        <DataArray type="UInt8" Name="types" format="ascii" RangeMin="1" RangeMax="1">
          1 1 1 1 1 1
          1 1 1 1 1 1
        </DataArray>
      </Cells>
    </Piece>
  </UnstructuredGrid>
</VTKFile>
