<?xml version="1.0"?>
<VTKFile type="UnstructuredGrid" version="0.1" byte_order="LittleEndian" compressor="vtkZLibDataCompressor">
  <UnstructuredGrid>
    <Piece NumberOfPoints="12" NumberOfCells="12">
      <PointData>
        <DataArray type="Float64" Name="Dilatation" format="ascii" RangeMin="-0.0047299580856" RangeMax="-0.004322088178">
          -0.0047299580856 -0.0047299580856 -0.0047299580856 -0.0047299580856 -0.004322088178 -0.004322088178
          -0.004322088178 -0.004322088178 -0.0047299580856 -0.0047299580856 -0.0047299580856 -0.0047299580856
        </DataArray>
        <DataArray type="Float64" Name="Displacement" NumberOfComponents="3" format="ascii" RangeMin="0" RangeMax="0.020134119111">
          0 0 0.0016405414287 0 0 0
          0 0.0016405414287 0.0016405414287 0 0.0016405414287 0
          -0.01 -0.0019484886516 0.0035890300803 -0.01 -0.0019484886516 -0.0019484886516
          -0.01 0.0035890300803 0.0035890300803 -0.01 0.0035890300803 -0.0019484886516
          -0.02 6.9208795697e-17 0.0016405414287 -0.02 3.4031713262e-17 5.4657907031e-17
          -0.02 0.0016405414287 0.0016405414287 -0.02 0.0016405414287 9.2330850902e-17
        </DataArray>
        <DataArray type="Float64" Name="Force_Density" NumberOfComponents="3" format="ascii" RangeMin="2.603238833e-05" RangeMax="2687427942.7">
          -2687427942.7 -1.4305114746e-05 3.8422644138e-05 -2687427942.7 -8.4638595581e-06 1.6531732399e-05
          -2687427942.7 8.0308527686e-06 -5.9574842453e-05 -2687427942.7 3.8989353925e-05 4.4771004468e-06
          -1.1920928955e-07 -5.5730342865e-06 -4.343688488e-05 2.4437904358e-05 -6.8545341492e-06 -5.787005648e-06
          1.1920928955e-07 -4.3211388402e-05 5.6028366089e-06 3.5762786865e-07 3.1477538869e-05 4.3331412598e-05
          2687427942.7 1.6450881958e-05 8.2850456238e-06 2687427942.7 4.5001506805e-06 -1.4138373893e-05
          2687427942.7 3.8664924458e-05 1.4185905457e-05 2687427942.7 -5.9640103258e-05 -8.0764293671e-06
        </DataArray>
        <DataArray type="Int32" Name="ID" format="ascii" RangeMin="0" RangeMax="11">
          0 1 2 3 4 5
          6 7 8 9 10 11
        </DataArray>
        <DataArray type="Int32" Name="Proc_Num" format="ascii" RangeMin="0" RangeMax="0">
          0 0 0 0 0 0
          0 0 0 0 0 0
        </DataArray>
        <DataArray type="Float64" Name="Velocity" NumberOfComponents="3" format="ascii" RangeMin="0" RangeMax="2013.2035939">
          0 0 162.77086706 0 0 0
          0 162.77086706 162.77086706 0 162.77086706 0
          -1000 -195.96821488 358.73908194 -1000 -195.96821488 -195.96821488
          -1000 358.73908194 358.73908194 -1000 358.73908194 -195.96821488
          -2000 5.9476506463e-11 162.77086706 -2000 -5.0274517562e-11 9.2344689694e-11
          -2000 162.77086706 162.77086706 -2000 162.77086706 8.0492944128e-11
        </DataArray>
        <DataArray type="Float64" Name="Weighted_Volume" format="ascii" RangeMin="12" RangeMax="20">
          12 12 12 12 20 20
          20 20 12 12 12 12
        </DataArray>
      </PointData>
      <CellData>
      </CellData>
      <Points>
        <DataArray type="Float64" Name="Points" NumberOfComponents="3" format="ascii" RangeMin="0.70710678119" RangeMax="1.2247448714">
          -1 -0.5 0.5 -1 -0.5 -0.5
          -1 0.5 0.5 -1 0.5 -0.5
          0 -0.5 0.5 0 -0.5 -0.5
          0 0.5 0.5 0 0.5 -0.5
          1 -0.5 0.5 1 -0.5 -0.5
          1 0.5 0.5 1 0.5 -0.5
        </DataArray>
      </Points>
      <Cells>
        <DataArray type="Int64" Name="connectivity" format="ascii" RangeMin="0" RangeMax="11">
          0 1 2 3 4 5
          6 7 8 9 10 11
        </DataArray>
        <DataArray type="Int64" Name="offsets" format="ascii" RangeMin="1" RangeMax="12">
          1 2 3 4 5 6
          7 8 9 10 11 12
        </DataArray>
        <DataArray type="UInt8" Name="types" format="ascii" RangeMin="1" RangeMax="1">
          1 1 1 1 1 1
          1 1 1 1 1 1
        </DataArray>
      </Cells>
    </Piece>
  </UnstructuredGrid>
</VTKFile>
