<?xml version="1.0"?>
<VTKFile type="UnstructuredGrid" version="0.1" byte_order="LittleEndian" compressor="vtkZLibDataCompressor">
  <UnstructuredGrid>
    <Piece NumberOfPoints="12" NumberOfCells="12">
      <PointData>
        <DataArray type="Float64" Name="Dilatation" format="ascii" RangeMin="-0.011746588989" RangeMax="-0.010603032896">
          -0.011746588989 -0.011746588989 -0.011746588989 -0.011746588989 -0.010603032896 -0.010603032896
          -0.010603032896 -0.010603032896 -0.011746588989 -0.011746588989 -0.011746588989 -0.011746588989
        </DataArray>
        <DataArray type="Float64" Name="Displacement" NumberOfComponents="3" format="ascii" RangeMin="0" RangeMax="0.050324643909">
          0 0 0.0040354544094 0 0 0
          0 0.0040354544094 0.0040354544094 0 0.0040354544094 0
          -0.025 -0.0049284554466 0.0089639098559 -0.025 -0.0049284554466 -0.0049284554466
          -0.025 0.0089639098559 0.0089639098559 -0.025 0.0089639098559 -0.0049284554466
          -0.05 -1.1929439105e-16 0.0040354544094 -0.05 1.8249360045e-16 -2.4715703557e-16
          -0.05 0.0040354544094 0.0040354544094 -0.05 0.0040354544094 -1.9064539984e-17
        </DataArray>
        <DataArray type="Float64" Name="Force_Density" NumberOfComponents="3" format="ascii" RangeMin="2.2700812591e-05" RangeMax="6647777849">
          -6647777849 -1.0848045349e-05 1.1816620827e-05 -6647777849 3.2067298889e-05 -3.5108067095e-05
          -6647777849 1.1106953025e-05 -3.1590461731e-05 -6647777849 -1.194793731e-05 1.2305565178e-05
          2.3782253265e-05 -8.1926584244e-05 0.00010660290718 -2.384185791e-07 -1.59740448e-05 -4.1812192649e-05
          -3.4332275391e-05 4.1405670345e-05 1.5616416931e-05 0 1.572072506e-05 -1.6376376152e-05
          6647777849 1.3709068298e-06 4.1365623474e-05 6647777849 -4.118680954e-05 -4.1695842167e-05
          6647777849 -1.3434976541e-06 4.1246414185e-05 6647777849 6.1826114367e-05 -6.1869621277e-05
        </DataArray>
        <DataArray type="Int32" Name="ID" format="ascii" RangeMin="0" RangeMax="11">
          0 1 2 3 4 5
          6 7 8 9 10 11
        </DataArray>
        <DataArray type="Int32" Name="Proc_Num" format="ascii" RangeMin="0" RangeMax="0">
          0 0 0 0 0 0
          0 0 0 0 0 0
        </DataArray>
        <DataArray type="Float64" Name="Velocity" NumberOfComponents="3" format="ascii" RangeMin="0" RangeMax="0">
          0 0 0 0 0 0
          0 0 0 0 0 0
          0 0 0 0 0 0
          0 0 0 0 0 0
          0 0 0 0 0 0
          0 0 0 0 0 0
        </DataArray>
        <DataArray type="Float64" Name="Weighted_Volume" format="ascii" RangeMin="12" RangeMax="20">
          12 12 12 12 20 20
          20 20 12 12 12 12
        </DataArray>
      </PointData>
      <CellData>
      </CellData>
      <Points>
        <DataArray type="Float64" Name="Points" NumberOfComponents="3" format="ascii" RangeMin="0.70710678119" RangeMax="1.2247448714">
          -1 -0.5 0.5 -1 -0.5 -0.5
          -1 0.5 0.5 -1 0.5 -0.5
          0 -0.5 0.5 0 -0.5 -0.5
          0 0.5 0.5 0 0.5 -0.5
          1 -0.5 0.5 1 -0.5 -0.5
          1 0.5 0.5 1 0.5 -0.5
        </DataArray>
      </Points>
      <Cells>
        <DataArray type="Int64" Name="connectivity" format="ascii" RangeMin="0" RangeMax="11">
          0 1 2 3 4 5
          6 7 8 9 10 11
        </DataArray>
        <DataArray type="Int64" Name="offsets" format="ascii" RangeMin="1" RangeMax="12">
          1 2 3 4 5 6
          7 8 9 10 11 12
        </DataArray>
        <DataArray type="UInt8" Name="types" format="ascii" RangeMin="1" RangeMax="1">
          1 1 1 1 1 1
          1 1 1 1 1 1
        </DataArray>
      </Cells>
    </Piece>
  </UnstructuredGrid>
</VTKFile>
