<?xml version="1.0"?>
<VTKFile type="UnstructuredGrid" version="0.1" byte_order="LittleEndian" compressor="vtkZLibDataCompressor">
  <UnstructuredGrid>
    <Piece NumberOfPoints="12" NumberOfCells="12">
      <PointData>
        <DataArray type="Float64" Name="Dilatation" format="ascii" RangeMin="-0.015220881294" RangeMax="-0.013651749313">
          -0.015220881294 -0.015220881294 -0.015220881294 -0.015220881294 -0.013651749313 -0.013651749313
          -0.013651749313 -0.013651749313 -0.015220881294 -0.015220881294 -0.015220881294 -0.015220881294
        </DataArray>
        <DataArray type="Float64" Name="Displacement" NumberOfComponents="3" format="ascii" RangeMin="0" RangeMax="0.065414958144">
          0 0 0.005201766476 0 0 0
          0 0.005201766476 0.005201766476 0 0.005201766476 0
          -0.0325 -0.0064453067709 0.011647073247 -0.0325 -0.0064453067709 -0.0064453067709
          -0.0325 0.011647073247 0.011647073247 -0.0325 0.011647073247 -0.0064453067709
          -0.065 2.1841410482e-17 0.005201766476 -0.065 -2.4297257082e-16 1.6684530613e-16
          -0.065 0.005201766476 0.005201766476 -0.065 0.005201766476 -1.3073415393e-16
        </DataArray>
        <DataArray type="Float64" Name="Force_Density" NumberOfComponents="3" format="ascii" RangeMin="5.4217755725e-05" RangeMax="8596074041">
          -8596074041 -5.1736831665e-05 2.6762485504e-05 -8596074041 -5.2094459534e-05 -2.7004629374e-05
          -8596074041 2.8287991881e-05 5.1379203796e-05 -8596074041 8.1565231085e-06 -3.1940639019e-05
          -1.7583370209e-05 4.5716762543e-05 -2.3245811462e-05 -1.5377998352e-05 -5.9008598328e-05 1.4310702682e-05
          -1.1682510376e-05 0.00010353885591 8.0108642578e-05 6.7234039307e-05 -2.4624168873e-06 -4.7653913498e-05
          8596074041 2.9444694519e-05 -7.8558921814e-05 8596074041 2.7775764465e-05 -2.0644037919e-05
          8596074041 -4.8265407875e-05 1.5497207642e-06 8596074041 -2.9332662426e-05 5.3763389587e-05
        </DataArray>
        <DataArray type="Int32" Name="ID" format="ascii" RangeMin="0" RangeMax="11">
          0 1 2 3 4 5
          6 7 8 9 10 11
        </DataArray>
        <DataArray type="Int32" Name="Proc_Num" format="ascii" RangeMin="0" RangeMax="0">
          0 0 0 0 0 0
          0 0 0 0 0 0
        </DataArray>
        <DataArray type="Float64" Name="Velocity" NumberOfComponents="3" format="ascii" RangeMin="0" RangeMax="0">
          0 0 0 0 0 0
          0 0 0 0 0 0
          0 0 0 0 0 0
          0 0 0 0 0 0
          0 0 0 0 0 0
          0 0 0 0 0 0
        </DataArray>
        <DataArray type="Float64" Name="Weighted_Volume" format="ascii" RangeMin="12" RangeMax="20">
          12 12 12 12 20 20
          20 20 12 12 12 12
        </DataArray>
      </PointData>
      <CellData>
      </CellData>
      <Points>
        <DataArray type="Float64" Name="Points" NumberOfComponents="3" format="ascii" RangeMin="0.70710678119" RangeMax="1.2247448714">
          -1 -0.5 0.5 -1 -0.5 -0.5
          -1 0.5 0.5 -1 0.5 -0.5
          0 -0.5 0.5 0 -0.5 -0.5
          0 0.5 0.5 0 0.5 -0.5
          1 -0.5 0.5 1 -0.5 -0.5
          1 0.5 0.5 1 0.5 -0.5
        </DataArray>
      </Points>
      <Cells>
        <DataArray type="Int64" Name="connectivity" format="ascii" RangeMin="0" RangeMax="11">
          0 1 2 3 4 5
          6 7 8 9 10 11
        </DataArray>
        <DataArray type="Int64" Name="offsets" format="ascii" RangeMin="1" RangeMax="12">
          1 2 3 4 5 6
          7 8 9 10 11 12
        </DataArray>
        <DataArray type="UInt8" Name="types" format="ascii" RangeMin="1" RangeMax="1">
          1 1 1 1 1 1
          1 1 1 1 1 1
        </DataArray>
      </Cells>
    </Piece>
  </UnstructuredGrid>
</VTKFile>
