<?xml version="1.0"?>
<VTKFile type="UnstructuredGrid" version="0.1" byte_order="LittleEndian" compressor="vtkZLibDataCompressor">
  <UnstructuredGrid>
    <Piece NumberOfPoints="12" NumberOfCells="12">
      <PointData>
        <DataArray type="Float64" Name="Dilatation" format="ascii" RangeMin="-0.022104315829" RangeMax="-0.019563584386">
          -0.022104315829 -0.022104315829 -0.022104315829 -0.022104315829 -0.019563584386 -0.019563584386
          -0.019563584386 -0.019563584386 -0.022104315829 -0.022104315829 -0.022104315829 -0.022104315829
        </DataArray>
        <DataArray type="Float64" Name="Displacement" NumberOfComponents="3" format="ascii" RangeMin="0" RangeMax="0.095585335359">
          0 0 0.0074684782798 0 0 0
          0 0.0074684782798 0.0074684782798 0 0.0074684782798 0
          -0.0475 -0.0095355679805 0.01700404626 -0.0475 -0.0095355679805 -0.0095355679805
          -0.0475 0.01700404626 0.01700404626 -0.0475 0.01700404626 -0.0095355679805
          -0.095 4.7061347131e-17 0.0074684782798 -0.095 -6.3887592404e-18 1.2978560721e-16
          -0.095 0.0074684782798 0.0074684782798 -0.095 0.0074684782798 -6.4674619715e-18
        </DataArray>
        <DataArray type="Float64" Name="Force_Density" NumberOfComponents="3" format="ascii" RangeMin="1.9374810451e-05" RangeMax="12428831960">
          -12428831960 -4.380941391e-06 2.6702880859e-05 -12428831960 1.5735626221e-05 1.6249716282e-05
          -12428831960 2.9085204005e-06 2.7537345886e-05 -12428831960 2.7850270271e-05 -2.9984861612e-05
          4.4703483582e-06 -1.2278556824e-05 1.4305114746e-05 2.5272369385e-05 -8.7738037109e-05 -3.9115548134e-05
          5.9127807617e-05 -2.7015805244e-05 2.5033950806e-05 1.7166137695e-05 2.1331012249e-05 -6.7330896854e-05
          12428831960 4.7326087952e-05 -4.7206878662e-05 12428831960 -1.4305114746e-05 -1.3550894261e-05
          12428831960 3.3694949149e-05 5.9127807617e-05 12428831960 -2.8999876971e-06 2.658367157e-05
        </DataArray>
        <DataArray type="Int32" Name="ID" format="ascii" RangeMin="0" RangeMax="11">
          0 1 2 3 4 5
          6 7 8 9 10 11
        </DataArray>
        <DataArray type="Int32" Name="Proc_Num" format="ascii" RangeMin="0" RangeMax="0">
          0 0 0 0 0 0
          0 0 0 0 0 0
        </DataArray>
        <DataArray type="Float64" Name="Velocity" NumberOfComponents="3" format="ascii" RangeMin="0" RangeMax="2011.0104403">
          0 0 148.59843687 0 0 0
          0 148.59843687 148.59843687 0 148.59843687 0
          -1000 -208.17192442 356.7703613 -1000 -208.17192442 -208.17192442
          -1000 356.7703613 356.7703613 -1000 356.7703613 -208.17192442
          -2000 -3.583494441e-11 148.59843687 -2000 -2.2926905491e-11 4.8104712899e-11
          -2000 148.59843687 148.59843687 -2000 148.59843687 -1.859011875e-11
        </DataArray>
        <DataArray type="Float64" Name="Weighted_Volume" format="ascii" RangeMin="12" RangeMax="20">
          12 12 12 12 20 20
          20 20 12 12 12 12
        </DataArray>
      </PointData>
      <CellData>
      </CellData>
      <Points>
        <DataArray type="Float64" Name="Points" NumberOfComponents="3" format="ascii" RangeMin="0.70710678119" RangeMax="1.2247448714">
          -1 -0.5 0.5 -1 -0.5 -0.5
          -1 0.5 0.5 -1 0.5 -0.5
          0 -0.5 0.5 0 -0.5 -0.5
          0 0.5 0.5 0 0.5 -0.5
          1 -0.5 0.5 1 -0.5 -0.5
          1 0.5 0.5 1 0.5 -0.5
        </DataArray>
      </Points>
      <Cells>
        <DataArray type="Int64" Name="connectivity" format="ascii" RangeMin="0" RangeMax="11">
          0 1 2 3 4 5
          6 7 8 9 10 11
        </DataArray>
        <DataArray type="Int64" Name="offsets" format="ascii" RangeMin="1" RangeMax="12">
          1 2 3 4 5 6
          7 8 9 10 11 12
        </DataArray>
        <DataArray type="UInt8" Name="types" format="ascii" RangeMin="1" RangeMax="1">
          1 1 1 1 1 1
          1 1 1 1 1 1
        </DataArray>
      </Cells>
    </Piece>
  </UnstructuredGrid>
</VTKFile>
