<?xml version="1.0"?>
<VTKFile type="UnstructuredGrid" version="0.1" byte_order="LittleEndian" compressor="vtkZLibDataCompressor">
  <UnstructuredGrid>
    <Piece NumberOfPoints="12" NumberOfCells="12">
      <PointData>
        <DataArray type="Float64" Name="Dilatation" format="ascii" RangeMin="-0.003551455308" RangeMax="-0.0032516331889">
          -0.003551455308 -0.003551455308 -0.003551455308 -0.003551455308 -0.0032516331889 -0.0032516331889
          -0.0032516331889 -0.0032516331889 -0.003551455308 -0.003551455308 -0.003551455308 -0.003551455308
        </DataArray>
        <DataArray type="Float64" Name="Displacement" NumberOfComponents="3" format="ascii" RangeMin="0" RangeMax="0.015101112816">
          0 0 0.001233614261 0 0 0
          0 0.001233614261 0.001233614261 0 0.001233614261 0
          -0.0075 -0.0014585681144 0.0026921823754 -0.0075 -0.0014585681144 -0.0014585681144
          -0.0075 0.0026921823754 0.0026921823754 -0.0075 0.0026921823754 -0.0014585681144
          -0.015 -7.9482470462e-17 0.001233614261 -0.015 1.5971800717e-16 -1.762038172e-16
          -0.015 0.001233614261 0.001233614261 -0.015 0.001233614261 -1.0890150942e-16
        </DataArray>
        <DataArray type="Float64" Name="Force_Density" NumberOfComponents="3" format="ascii" RangeMin="1.7336226878e-05" RangeMax="2019109505.1">
          -2019109505.1 4.5031309128e-05 -6.9059431553e-05 -2019109505.1 2.4884939194e-05 2.516261884e-05
          -2019109505.1 -6.9482863182e-05 -4.4792890549e-05 -2019109505.1 -6.4698397182e-05 6.5213767812e-05
          -0.00015750527382 4.6953558922e-05 2.7596950531e-05 -2.709031105e-05 -2.3484230042e-05 1.2831878848e-06
          1.7255544662e-05 1.7069862224e-05 4.3153762817e-05 -1.6808509827e-05 2.7508940548e-06 -3.2328534871e-06
          2019109505.1 1.4558434486e-05 -1.4469027519e-05 2019109505.1 -4.8816204071e-05 -3.0399932977e-05
          2019109505.1 6.1424066941e-06 5.6028366089e-06 2019109505.1 4.8933849219e-05 -5.8263540268e-06
        </DataArray>
        <DataArray type="Int32" Name="ID" format="ascii" RangeMin="0" RangeMax="11">
          0 1 2 3 4 5
          6 7 8 9 10 11
        </DataArray>
        <DataArray type="Int32" Name="Proc_Num" format="ascii" RangeMin="0" RangeMax="0">
          0 0 0 0 0 0
          0 0 0 0 0 0
        </DataArray>
        <DataArray type="Float64" Name="Velocity" NumberOfComponents="3" format="ascii" RangeMin="0" RangeMax="2013.3433448">
          0 0 163.63285757 0 0 0
          0 163.63285757 163.63285757 0 163.63285757 0
          -1000 -195.21734727 358.85020484 -1000 -195.21734727 -195.21734727
          -1000 358.85020484 358.85020484 -1000 358.85020484 -195.21734727
          -2000 -6.3438720049e-11 163.63285757 -2000 -3.0551801747e-11 -3.7155630309e-11
          -2000 163.63285757 163.63285757 -2000 163.63285757 -6.9822434128e-11
        </DataArray>
        <DataArray type="Float64" Name="Weighted_Volume" format="ascii" RangeMin="12" RangeMax="20">
          12 12 12 12 20 20
          20 20 12 12 12 12
        </DataArray>
      </PointData>
      <CellData>
      </CellData>
      <Points>
        <DataArray type="Float64" Name="Points" NumberOfComponents="3" format="ascii" RangeMin="0.70710678119" RangeMax="1.2247448714">
          -1 -0.5 0.5 -1 -0.5 -0.5
          -1 0.5 0.5 -1 0.5 -0.5
          0 -0.5 0.5 0 -0.5 -0.5
          0 0.5 0.5 0 0.5 -0.5
          1 -0.5 0.5 1 -0.5 -0.5
          1 0.5 0.5 1 0.5 -0.5
        </DataArray>
      </Points>
      <Cells>
        <DataArray type="Int64" Name="connectivity" format="ascii" RangeMin="0" RangeMax="11">
          0 1 2 3 4 5
          6 7 8 9 10 11
        </DataArray>
        <DataArray type="Int64" Name="offsets" format="ascii" RangeMin="1" RangeMax="12">
          1 2 3 4 5 6
          7 8 9 10 11 12
        </DataArray>
        <DataArray type="UInt8" Name="types" format="ascii" RangeMin="1" RangeMax="1">
          1 1 1 1 1 1
          1 1 1 1 1 1
        </DataArray>
      </Cells>
    </Piece>
  </UnstructuredGrid>
</VTKFile>
