<?xml version="1.0"?>
<VTKFile type="UnstructuredGrid" version="0.1" byte_order="LittleEndian" compressor="vtkZLibDataCompressor">
  <UnstructuredGrid>
    <Piece NumberOfPoints="12" NumberOfCells="12">
      <PointData>
        <DataArray type="Float64" Name="Dilatation" format="ascii" RangeMin="-0.020962962637" RangeMax="-0.018595578674">
          -0.020962962637 -0.020962962637 -0.020962962637 -0.020962962637 -0.018595578674 -0.018595578674
          -0.018595578674 -0.018595578674 -0.020962962637 -0.020962962637 -0.020962962637 -0.020962962637
        </DataArray>
        <DataArray type="Float64" Name="Displacement" NumberOfComponents="3" format="ascii" RangeMin="0" RangeMax="0.090557905852">
          0 0 0.0070969821876 0 0 0
          0 0.0070969821876 0.0070969821876 0 0.0070969821876 0
          -0.045 -0.0090151381694 0.016112120357 -0.045 -0.0090151381694 -0.0090151381694
          -0.045 0.016112120357 0.016112120357 -0.045 0.016112120357 -0.0090151381694
          -0.09 2.8884255661e-17 0.0070969821876 -0.09 7.2046178302e-17 -2.3274722265e-17
          -0.09 0.0070969821876 0.0070969821876 -0.09 0.0070969821876 -5.3210658714e-17
        </DataArray>
        <DataArray type="Float64" Name="Force_Density" NumberOfComponents="3" format="ascii" RangeMin="1.7853755255e-05" RangeMax="11795954488">
          -11795954488 4.4524669647e-05 -4.3392181396e-05 -11795954488 2.4080276489e-05 2.6304274797e-05
          -11795954488 -2.4021603167e-05 -2.3007392883e-05 -11795954488 -2.4072825909e-05 9.8347663879e-07
          -4.768371582e-07 -1.0907649994e-05 -1.4126300812e-05 1.2397766113e-05 -1.1920928955e-05 9.9893659353e-06
          5.2452087402e-06 3.0677765608e-05 5.5313110352e-05 -2.0027160645e-05 -9.9092721939e-06 6.7129731178e-06
          11795954488 2.4199485779e-05 -2.4795532227e-05 11795954488 -2.6226043701e-05 -2.5229441251e-05
          11795954488 7.152557373e-06 6.1988830566e-06 11795954488 -2.3484230042e-05 2.5033950806e-05
        </DataArray>
        <DataArray type="Int32" Name="ID" format="ascii" RangeMin="0" RangeMax="11">
          0 1 2 3 4 5
          6 7 8 9 10 11
        </DataArray>
        <DataArray type="Int32" Name="Proc_Num" format="ascii" RangeMin="0" RangeMax="0">
          0 0 0 0 0 0
          0 0 0 0 0 0
        </DataArray>
        <DataArray type="Float64" Name="Velocity" NumberOfComponents="3" format="ascii" RangeMin="0" RangeMax="0">
          0 0 0 0 0 0
          0 0 0 0 0 0
          0 0 0 0 0 0
          0 0 0 0 0 0
          0 0 0 0 0 0
          0 0 0 0 0 0
        </DataArray>
        <DataArray type="Float64" Name="Weighted_Volume" format="ascii" RangeMin="12" RangeMax="20">
          12 12 12 12 20 20
          20 20 12 12 12 12
        </DataArray>
      </PointData>
      <CellData>
      </CellData>
      <Points>
        <DataArray type="Float64" Name="Points" NumberOfComponents="3" format="ascii" RangeMin="0.70710678119" RangeMax="1.2247448714">
          -1 -0.5 0.5 -1 -0.5 -0.5
          -1 0.5 0.5 -1 0.5 -0.5
          0 -0.5 0.5 0 -0.5 -0.5
          0 0.5 0.5 0 0.5 -0.5
          1 -0.5 0.5 1 -0.5 -0.5
          1 0.5 0.5 1 0.5 -0.5
        </DataArray>
      </Points>
      <Cells>
        <DataArray type="Int64" Name="connectivity" format="ascii" RangeMin="0" RangeMax="11">
          0 1 2 3 4 5
          6 7 8 9 10 11
        </DataArray>
        <DataArray type="Int64" Name="offsets" format="ascii" RangeMin="1" RangeMax="12">
          1 2 3 4 5 6
          7 8 9 10 11 12
        </DataArray>
        <DataArray type="UInt8" Name="types" format="ascii" RangeMin="1" RangeMax="1">
          1 1 1 1 1 1
          1 1 1 1 1 1
        </DataArray>
      </Cells>
    </Piece>
  </UnstructuredGrid>
</VTKFile>
