<?xml version="1.0"?>
<VTKFile type="UnstructuredGrid" version="0.1" byte_order="LittleEndian" compressor="vtkZLibDataCompressor">
  <UnstructuredGrid>
    <Piece NumberOfPoints="12" NumberOfCells="12">
      <PointData>
        <DataArray type="Float64" Name="Dilatation" format="ascii" RangeMin="-0.0082498037" RangeMax="-0.0074930201004">
          -0.0082498037 -0.0082498037 -0.0082498037 -0.0082498037 -0.0074930201004 -0.0074930201004
          -0.0074930201004 -0.0074930201004 -0.0082498037 -0.0082498037 -0.0082498037 -0.0082498037
        </DataArray>
        <DataArray type="Float64" Name="Displacement" NumberOfComponents="3" format="ascii" RangeMin="0" RangeMax="0.03523100722">
          0 0 0.0028481458656 0 0 0
          0 0.0028481458656 0.0028481458656 0 0.0028481458656 0
          -0.0175 -0.0034296932159 0.0062778390815 -0.0175 -0.0034296932159 -0.0034296932159
          -0.0175 0.0062778390815 0.0062778390815 -0.0175 0.0062778390815 -0.0034296932159
          -0.035 6.2623590031e-17 0.0028481458656 -0.035 1.7663549214e-16 -2.2171427075e-17
          -0.035 0.0028481458656 0.0028481458656 -0.035 0.0028481458656 -4.4899659741e-19
        </DataArray>
        <DataArray type="Float64" Name="Force_Density" NumberOfComponents="3" format="ascii" RangeMin="3.33421132e-05" RangeMax="4678225170.5">
          -4678225170.5 -5.2839517593e-05 2.8222799301e-05 -4678225170.5 -3.5762786865e-05 -7.8348210081e-05
          -4678225170.5 7.8921439126e-05 5.429983139e-05 -4678225170.5 2.9992777854e-05 -7.2501599789e-05
          3.5464763641e-06 6.1690807343e-06 -3.257393837e-05 6.5386295319e-05 -3.1590461731e-05 -6.3620973378e-06
          6.5565109253e-05 5.5737327784e-05 4.6491622925e-06 -6.1750411987e-05 1.7025507987e-05 0.00010691024363
          4678225170.5 -4.7743320465e-05 4.7624111176e-05 4678225170.5 -2.9444694519e-05 -4.8070205642e-05
          4678225170.5 4.905650339e-05 2.3365020752e-05 4678225170.5 -3.9429412889e-05 -2.7477741241e-05
        </DataArray>
        <DataArray type="Int32" Name="ID" format="ascii" RangeMin="0" RangeMax="11">
          0 1 2 3 4 5
          6 7 8 9 10 11
        </DataArray>
        <DataArray type="Int32" Name="Proc_Num" format="ascii" RangeMin="0" RangeMax="0">
          0 0 0 0 0 0
          0 0 0 0 0 0
        </DataArray>
        <DataArray type="Float64" Name="Velocity" NumberOfComponents="3" format="ascii" RangeMin="0" RangeMax="2012.7792543">
          0 0 160.12546105 0 0 0
          0 160.12546105 160.12546105 0 160.12546105 0
          -1000 -198.2641469 358.38960795 -1000 -198.2641469 -198.2641469
          -1000 358.38960795 358.38960795 -1000 358.38960795 -198.2641469
          -2000 -1.0581622926e-11 160.12546105 -2000 3.0881328202e-11 1.5079936655e-11
          -2000 160.12546105 160.12546105 -2000 160.12546105 2.7150953529e-11
        </DataArray>
        <DataArray type="Float64" Name="Weighted_Volume" format="ascii" RangeMin="12" RangeMax="20">
          12 12 12 12 20 20
          20 20 12 12 12 12
        </DataArray>
      </PointData>
      <CellData>
      </CellData>
      <Points>
        <DataArray type="Float64" Name="Points" NumberOfComponents="3" format="ascii" RangeMin="0.70710678119" RangeMax="1.2247448714">
          -1 -0.5 0.5 -1 -0.5 -0.5
          -1 0.5 0.5 -1 0.5 -0.5
          0 -0.5 0.5 0 -0.5 -0.5
          0 0.5 0.5 0 0.5 -0.5
          1 -0.5 0.5 1 -0.5 -0.5
          1 0.5 0.5 1 0.5 -0.5
        </DataArray>
      </Points>
      <Cells>
        <DataArray type="Int64" Name="connectivity" format="ascii" RangeMin="0" RangeMax="11">
          0 1 2 3 4 5
          6 7 8 9 10 11
        </DataArray>
        <DataArray type="Int64" Name="offsets" format="ascii" RangeMin="1" RangeMax="12">
          1 2 3 4 5 6
          7 8 9 10 11 12
        </DataArray>
        <DataArray type="UInt8" Name="types" format="ascii" RangeMin="1" RangeMax="1">
          1 1 1 1 1 1
          1 1 1 1 1 1
        </DataArray>
      </Cells>
    </Piece>
  </UnstructuredGrid>
</VTKFile>
