<?xml version="1.0"?>
<VTKFile type="UnstructuredGrid" version="0.1" byte_order="LittleEndian" compressor="vtkZLibDataCompressor">
  <UnstructuredGrid>
    <Piece NumberOfPoints="12" NumberOfCells="12">
      <PointData>
        <DataArray type="Float64" Name="Dilatation" format="ascii" RangeMin="-0.020962962637" RangeMax="-0.018595578674">
          -0.020962962637 -0.020962962637 -0.020962962637 -0.020962962637 -0.018595578674 -0.018595578674
          -0.018595578674 -0.018595578674 -0.020962962637 -0.020962962637 -0.020962962637 -0.020962962637
        </DataArray>
        <DataArray type="Float64" Name="Displacement" NumberOfComponents="3" format="ascii" RangeMin="0" RangeMax="0.090557905852">
          0 0 0.0070969821876 0 0 0
          0 0.0070969821876 0.0070969821876 0 0.0070969821876 0
          -0.045 -0.0090151381694 0.016112120357 -0.045 -0.0090151381694 -0.0090151381694
          -0.045 0.016112120357 0.016112120357 -0.045 0.016112120357 -0.0090151381694
          -0.09 1.3664870816e-16 0.0070969821876 -0.09 5.0928504487e-17 9.5238249665e-18
          -0.09 0.0070969821876 0.0070969821876 -0.09 0.0070969821876 4.0007834903e-17
        </DataArray>
        <DataArray type="Float64" Name="Force_Density" NumberOfComponents="3" format="ascii" RangeMin="1.6440948226e-05" RangeMax="11795954488">
          -11795954488 -7.1823596954e-06 7.3075294495e-05 -11795954488 2.2888183594e-05 -1.9596889615e-05
          -11795954488 -2.3717992008e-05 -2.5033950806e-05 -11795954488 3.0033290386e-05 -6.1839818954e-06
          3.3378601074e-06 -9.7155570984e-06 1.3589859009e-05 4.4822692871e-05 -3.5047531128e-05 -3.6766752601e-05
          -4.768371582e-07 1.1639669538e-05 1.2874603271e-05 0 1.1868774891e-05 -1.1377036572e-05
          11795954488 2.4199485779e-05 -2.4318695068e-05 11795954488 -7.152557373e-06 -6.2370236347e-06
          11795954488 6.5231579028e-06 5.7220458984e-06 11795954488 -2.3884786044e-05 2.39610672e-05
        </DataArray>
        <DataArray type="Int32" Name="ID" format="ascii" RangeMin="0" RangeMax="11">
          0 1 2 3 4 5
          6 7 8 9 10 11
        </DataArray>
        <DataArray type="Int32" Name="Proc_Num" format="ascii" RangeMin="0" RangeMax="0">
          0 0 0 0 0 0
          0 0 0 0 0 0
        </DataArray>
        <DataArray type="Float64" Name="Velocity" NumberOfComponents="3" format="ascii" RangeMin="0" RangeMax="2011.1619124">
          0 0 149.61991482 0 0 0
          0 149.61991482 149.61991482 0 149.61991482 0
          -1000 -207.29774974 356.91766456 -1000 -207.29774974 -207.29774974
          -1000 356.91766456 356.91766456 -1000 356.91766456 -207.29774974
          -2000 7.9673754549e-11 149.61991482 -2000 7.5260165255e-11 1.0950739255e-10
          -2000 149.61991482 149.61991482 -2000 149.61991482 9.2421964242e-11
        </DataArray>
        <DataArray type="Float64" Name="Weighted_Volume" format="ascii" RangeMin="12" RangeMax="20">
          12 12 12 12 20 20
          20 20 12 12 12 12
        </DataArray>
      </PointData>
      <CellData>
      </CellData>
      <Points>
        <DataArray type="Float64" Name="Points" NumberOfComponents="3" format="ascii" RangeMin="0.70710678119" RangeMax="1.2247448714">
          -1 -0.5 0.5 -1 -0.5 -0.5
          -1 0.5 0.5 -1 0.5 -0.5
          0 -0.5 0.5 0 -0.5 -0.5
          0 0.5 0.5 0 0.5 -0.5
          1 -0.5 0.5 1 -0.5 -0.5
          1 0.5 0.5 1 0.5 -0.5
        </DataArray>
      </Points>
      <Cells>
        <DataArray type="Int64" Name="connectivity" format="ascii" RangeMin="0" RangeMax="11">
          0 1 2 3 4 5
          6 7 8 9 10 11
        </DataArray>
        <DataArray type="Int64" Name="offsets" format="ascii" RangeMin="1" RangeMax="12">
          1 2 3 4 5 6
          7 8 9 10 11 12
        </DataArray>
        <DataArray type="UInt8" Name="types" format="ascii" RangeMin="1" RangeMax="1">
          1 1 1 1 1 1
          1 1 1 1 1 1
        </DataArray>
      </Cells>
    </Piece>
  </UnstructuredGrid>
</VTKFile>
