<?xml version="1.0"?>
<VTKFile type="UnstructuredGrid" version="0.1" byte_order="LittleEndian" compressor="vtkZLibDataCompressor">
  <UnstructuredGrid>
    <Piece NumberOfPoints="12" NumberOfCells="12">
      <PointData>
        <DataArray type="Float64" Name="Dilatation" format="ascii" RangeMin="-0.011746588989" RangeMax="-0.010603032896">
          -0.011746588989 -0.011746588989 -0.011746588989 -0.011746588989 -0.010603032896 -0.010603032896
          -0.010603032896 -0.010603032896 -0.011746588989 -0.011746588989 -0.011746588989 -0.011746588989
        </DataArray>
        <DataArray type="Float64" Name="Displacement" NumberOfComponents="3" format="ascii" RangeMin="0" RangeMax="0.050324643909">
          0 0 0.0040354544094 0 0 0
          0 0.0040354544094 0.0040354544094 0 0.0040354544094 0
          -0.025 -0.0049284554466 0.0089639098559 -0.025 -0.0049284554466 -0.0049284554466
          -0.025 0.0089639098559 0.0089639098559 -0.025 0.0089639098559 -0.0049284554466
          -0.05 -1.3935438249e-16 0.0040354544094 -0.05 2.9809060583e-16 -1.0469505443e-17
          -0.05 0.0040354544094 0.0040354544094 -0.05 0.0040354544094 2.7945072049e-16
        </DataArray>
        <DataArray type="Float64" Name="Force_Density" NumberOfComponents="3" format="ascii" RangeMin="1.698802326e-05" RangeMax="6647777849">
          -6647777849 3.2067298889e-05 -3.1933188438e-05 -6647777849 -1.0848045349e-05 3.2267998904e-05
          -6647777849 -3.1896866858e-05 1.049041748e-05 -6647777849 1.0722316802e-05 -1.1106953025e-05
          -4.4405460358e-05 -8.5979700089e-05 6.091594696e-05 1.9669532776e-05 2.8491020203e-05 -2.1854415536e-05
          1.3709068298e-05 6.163213402e-05 3.5047531128e-05 0 1.4854595065e-05 8.2422047853e-06
          6647777849 -4.2200088501e-05 4.2140483856e-05 6647777849 -8.5830688477e-05 -6.1403226133e-05
          6647777849 4.6514245807e-05 -2.6226043701e-06 6647777849 6.2215937704e-05 -6.0617923737e-05
        </DataArray>
        <DataArray type="Int32" Name="ID" format="ascii" RangeMin="0" RangeMax="11">
          0 1 2 3 4 5
          6 7 8 9 10 11
        </DataArray>
        <DataArray type="Int32" Name="Proc_Num" format="ascii" RangeMin="0" RangeMax="0">
          0 0 0 0 0 0
          0 0 0 0 0 0
        </DataArray>
        <DataArray type="Float64" Name="Velocity" NumberOfComponents="3" format="ascii" RangeMin="0" RangeMax="2012.3474798">
          0 0 157.38865791 0 0 0
          0 157.38865791 157.38865791 0 157.38865791 0
          -1000 -200.62816502 358.01682293 -1000 -200.62816502 -200.62816502
          -1000 358.01682293 358.01682293 -1000 358.01682293 -200.62816502
          -2000 -4.9147833737e-11 157.38865791 -2000 1.8993197607e-10 -5.2370838307e-11
          -2000 157.38865791 157.38865791 -2000 157.38865791 9.4623560539e-11
        </DataArray>
        <DataArray type="Float64" Name="Weighted_Volume" format="ascii" RangeMin="12" RangeMax="20">
          12 12 12 12 20 20
          20 20 12 12 12 12
        </DataArray>
      </PointData>
      <CellData>
      </CellData>
      <Points>
        <DataArray type="Float64" Name="Points" NumberOfComponents="3" format="ascii" RangeMin="0.70710678119" RangeMax="1.2247448714">
          -1 -0.5 0.5 -1 -0.5 -0.5
          -1 0.5 0.5 -1 0.5 -0.5
          0 -0.5 0.5 0 -0.5 -0.5
          0 0.5 0.5 0 0.5 -0.5
          1 -0.5 0.5 1 -0.5 -0.5
          1 0.5 0.5 1 0.5 -0.5
        </DataArray>
      </Points>
      <Cells>
        <DataArray type="Int64" Name="connectivity" format="ascii" RangeMin="0" RangeMax="11">
          0 1 2 3 4 5
          6 7 8 9 10 11
        </DataArray>
        <DataArray type="Int64" Name="offsets" format="ascii" RangeMin="1" RangeMax="12">
          1 2 3 4 5 6
          7 8 9 10 11 12
        </DataArray>
        <DataArray type="UInt8" Name="types" format="ascii" RangeMin="1" RangeMax="1">
          1 1 1 1 1 1
          1 1 1 1 1 1
        </DataArray>
      </Cells>
    </Piece>
  </UnstructuredGrid>
</VTKFile>
