<?xml version="1.0"?>
<VTKFile type="UnstructuredGrid" version="0.1" byte_order="LittleEndian" compressor="vtkZLibDataCompressor">
  <UnstructuredGrid>
    <Piece NumberOfPoints="12" NumberOfCells="12">
      <PointData>
        <DataArray type="Float64" Name="Dilatation" format="ascii" RangeMin="-0.015220881294" RangeMax="-0.013651749313">
          -0.015220881294 -0.015220881294 -0.015220881294 -0.015220881294 -0.013651749313 -0.013651749313
          -0.013651749313 -0.013651749313 -0.015220881294 -0.015220881294 -0.015220881294 -0.015220881294
        </DataArray>
        <DataArray type="Float64" Name="Displacement" NumberOfComponents="3" format="ascii" RangeMin="0" RangeMax="0.065414958144">
          0 0 0.005201766476 0 0 0
          0 0.005201766476 0.005201766476 0 0.005201766476 0
          -0.0325 -0.0064453067709 0.011647073247 -0.0325 -0.0064453067709 -0.0064453067709
          -0.0325 0.011647073247 0.011647073247 -0.0325 0.011647073247 -0.0064453067709
          -0.065 9.8090593137e-17 0.005201766476 -0.065 6.2363050272e-18 8.3750205598e-17
          -0.065 0.005201766476 0.005201766476 -0.065 0.005201766476 1.3867624789e-17
        </DataArray>
        <DataArray type="Float64" Name="Force_Density" NumberOfComponents="3" format="ascii" RangeMin="5.4548272861e-05" RangeMax="8596074041">
          -8596074041 4.0262937546e-05 5.179643631e-05 -8596074041 2.3126602173e-05 4.7493726015e-05
          -8596074041 -6.6860113293e-05 3.5762786865e-07 -8596074041 7.1544200182e-06 -8.3893537521e-06
          -3.0934810638e-05 6.1392784119e-06 -5.3405761719e-05 -5.9604644775e-05 -1.5735626221e-05 -3.862567246e-05
          -6.1988830566e-06 -5.4142437875e-05 -2.384185791e-06 1.5735626221e-05 1.1716037989e-05 -8.4489583969e-05
          8596074041 -2.7358531952e-05 5.1617622375e-05 8596074041 -7.5697898865e-06 -7.6574025545e-06
          8596074041 5.1565194927e-05 5.1140785217e-05 8596074041 3.1229245264e-05 -7.9274177551e-06
        </DataArray>
        <DataArray type="Int32" Name="ID" format="ascii" RangeMin="0" RangeMax="11">
          0 1 2 3 4 5
          6 7 8 9 10 11
        </DataArray>
        <DataArray type="Int32" Name="Proc_Num" format="ascii" RangeMin="0" RangeMax="0">
          0 0 0 0 0 0
          0 0 0 0 0 0
        </DataArray>
        <DataArray type="Float64" Name="Velocity" NumberOfComponents="3" format="ascii" RangeMin="0" RangeMax="2011.908544">
          0 0 154.55741529 0 0 0
          0 154.55741529 154.55741529 0 154.55741529 0
          -1000 -203.06445403 357.62186931 -1000 -203.06445403 -203.06445403
          -1000 357.62186931 357.62186931 -1000 357.62186931 -203.06445403
          -2000 -1.9562916804e-11 154.55741529 -2000 -1.0859441307e-10 1.0366895914e-10
          -2000 154.55741529 154.55741529 -2000 154.55741528 3.3693231881e-11
        </DataArray>
        <DataArray type="Float64" Name="Weighted_Volume" format="ascii" RangeMin="12" RangeMax="20">
          12 12 12 12 20 20
          20 20 12 12 12 12
        </DataArray>
      </PointData>
      <CellData>
      </CellData>
      <Points>
        <DataArray type="Float64" Name="Points" NumberOfComponents="3" format="ascii" RangeMin="0.70710678119" RangeMax="1.2247448714">
          -1 -0.5 0.5 -1 -0.5 -0.5
          -1 0.5 0.5 -1 0.5 -0.5
          0 -0.5 0.5 0 -0.5 -0.5
          0 0.5 0.5 0 0.5 -0.5
          1 -0.5 0.5 1 -0.5 -0.5
          1 0.5 0.5 1 0.5 -0.5
        </DataArray>
      </Points>
      <Cells>
        <DataArray type="Int64" Name="connectivity" format="ascii" RangeMin="0" RangeMax="11">
          0 1 2 3 4 5
          6 7 8 9 10 11
        </DataArray>
        <DataArray type="Int64" Name="offsets" format="ascii" RangeMin="1" RangeMax="12">
          1 2 3 4 5 6
          7 8 9 10 11 12
        </DataArray>
        <DataArray type="UInt8" Name="types" format="ascii" RangeMin="1" RangeMax="1">
          1 1 1 1 1 1
          1 1 1 1 1 1
        </DataArray>
      </Cells>
    </Piece>
  </UnstructuredGrid>
</VTKFile>
