<?xml version="1.0"?>
<VTKFile type="UnstructuredGrid" version="0.1" byte_order="LittleEndian" compressor="vtkZLibDataCompressor">
  <UnstructuredGrid>
    <Piece NumberOfPoints="12" NumberOfCells="12">
      <PointData>
        <DataArray type="Float64" Name="Dilatation" format="ascii" RangeMin="-0.005905836758" RangeMax="-0.0053858125202">
          -0.005905836758 -0.005905836758 -0.005905836758 -0.005905836758 -0.0053858125202 -0.0053858125202
          -0.0053858125202 -0.0053858125202 -0.005905836758 -0.005905836758 -0.005905836758 -0.005905836758
        </DataArray>
        <DataArray type="Float64" Name="Displacement" NumberOfComponents="3" format="ascii" RangeMin="0" RangeMax="0.02516677203">
          0 0 0.0020452890293 0 0 0
          0 0.0020452890293 0.0020452890293 0 0.0020452890293 0
          -0.0125 -0.0024403041725 0.0044855932017 -0.0125 -0.0024403041725 -0.0024403041725
          -0.0125 0.0044855932017 0.0044855932017 -0.0125 0.0044855932017 -0.0024403041725
          -0.025 -1.2191125769e-16 0.0020452890293 -0.025 -2.2619501276e-17 1.1792514755e-16
          -0.025 0.0020452890293 0.0020452890293 -0.025 0.0020452890293 1.7070761347e-17
        </DataArray>
        <DataArray type="Float64" Name="Force_Density" NumberOfComponents="3" format="ascii" RangeMin="3.6408143414e-05" RangeMax="3353386908.3">
          -3353386908.3 6.0468912125e-05 -6.0483813286e-05 -3353386908.3 4.0650367737e-05 6.4765685238e-05
          -3353386908.3 -4.0521263145e-05 -3.9994716644e-05 -3353386908.3 -8.4792263806e-05 6.0397665948e-05
          -6.1422586441e-05 -9.8198652267e-06 -1.3992190361e-05 -6.8545341492e-06 1.9907951355e-05 -2.9702554457e-05
          -3.6954879761e-05 5.0782109611e-05 7.5936317444e-05 -3.6954879761e-05 -1.5733763576e-05 -3.6267563701e-05
          3353386908.3 9.3281269073e-06 3.3169984818e-05 3353386908.3 -0.00012722611427 -8.4511678368e-05
          3353386908.3 2.0400204361e-05 6.4074993134e-05 3353386908.3 7.6316039711e-05 -3.3408403397e-05
        </DataArray>
        <DataArray type="Int32" Name="ID" format="ascii" RangeMin="0" RangeMax="11">
          0 1 2 3 4 5
          6 7 8 9 10 11
        </DataArray>
        <DataArray type="Int32" Name="Proc_Num" format="ascii" RangeMin="0" RangeMax="0">
          0 0 0 0 0 0
          0 0 0 0 0 0
        </DataArray>
        <DataArray type="Float64" Name="Velocity" NumberOfComponents="3" format="ascii" RangeMin="0" RangeMax="0">
          0 0 0 0 0 0
          0 0 0 0 0 0
          0 0 0 0 0 0
          0 0 0 0 0 0
          0 0 0 0 0 0
          0 0 0 0 0 0
        </DataArray>
        <DataArray type="Float64" Name="Weighted_Volume" format="ascii" RangeMin="12" RangeMax="20">
          12 12 12 12 20 20
          20 20 12 12 12 12
        </DataArray>
      </PointData>
      <CellData>
      </CellData>
      <Points>
        <DataArray type="Float64" Name="Points" NumberOfComponents="3" format="ascii" RangeMin="0.70710678119" RangeMax="1.2247448714">
          -1 -0.5 0.5 -1 -0.5 -0.5
          -1 0.5 0.5 -1 0.5 -0.5
          0 -0.5 0.5 0 -0.5 -0.5
          0 0.5 0.5 0 0.5 -0.5
          1 -0.5 0.5 1 -0.5 -0.5
          1 0.5 0.5 1 0.5 -0.5
        </DataArray>
      </Points>
      <Cells>
        <DataArray type="Int64" Name="connectivity" format="ascii" RangeMin="0" RangeMax="11">
          0 1 2 3 4 5
          6 7 8 9 10 11
        </DataArray>
        <DataArray type="Int64" Name="offsets" format="ascii" RangeMin="1" RangeMax="12">
          1 2 3 4 5 6
          7 8 9 10 11 12
        </DataArray>
        <DataArray type="UInt8" Name="types" format="ascii" RangeMin="1" RangeMax="1">
          1 1 1 1 1 1
          1 1 1 1 1 1
        </DataArray>
      </Cells>
    </Piece>
  </UnstructuredGrid>
</VTKFile>
