<?xml version="1.0"?>
<VTKFile type="UnstructuredGrid" version="0.1" byte_order="LittleEndian" compressor="vtkZLibDataCompressor">
  <UnstructuredGrid>
    <Piece NumberOfPoints="12" NumberOfCells="12">
      <PointData>
        <DataArray type="Float64" Name="Dilatation" format="ascii" RangeMin="-0.0070791117683" RangeMax="-0.0064427940314">
          -0.0070791117683 -0.0070791117683 -0.0070791117683 -0.0070791117683 -0.0064427940314 -0.0064427940314
          -0.0064427940314 -0.0064427940314 -0.0070791117683 -0.0070791117683 -0.0070791117683 -0.0070791117683
        </DataArray>
        <DataArray type="Float64" Name="Displacement" NumberOfComponents="3" format="ascii" RangeMin="0" RangeMax="0.030199068944">
          0 0 0.002447832213 0 0 0
          0 0.002447832213 0.002447832213 0 0.002447832213 0
          -0.015 -0.0029340328486 0.0053818650616 -0.015 -0.0029340328486 -0.0029340328486
          -0.015 0.0053818650616 0.0053818650616 -0.015 0.0053818650616 -0.0029340328486
          -0.03 -3.3086351779e-17 0.002447832213 -0.03 -8.0168851341e-17 1.3261944645e-16
          -0.03 0.002447832213 0.002447832213 -0.03 0.002447832213 2.5820669574e-16
        </DataArray>
        <DataArray type="Float64" Name="Force_Density" NumberOfComponents="3" format="ascii" RangeMin="7.5686360138e-05" RangeMax="4016986096.3">
          -4016986096.3 -3.2961368561e-05 3.2395124435e-05 -4016986096.3 7.2717666626e-06 3.1526316889e-05
          -4016986096.3 8.2274200395e-06 3.2484531403e-05 -4016986096.3 -6.9076195359e-06 3.1504780054e-05
          -0.00012356042862 3.7327408791e-05 1.4871358871e-05 1.9431114197e-05 -5.8531761169e-05 -5.883933045e-05
          3.3795833588e-05 -7.7249947935e-05 -7.7128410339e-05 4.4107437134e-05 5.9104524553e-05 1.7018057406e-05
          4016986096.3 1.2159347534e-05 1.2904405594e-05 4016986096.3 6.9737434387e-06 7.3876059149e-06
          4016986096.3 1.215260746e-05 -1.1563301086e-05 4016986096.3 3.2815726986e-05 -3.2514333725e-05
        </DataArray>
        <DataArray type="Int32" Name="ID" format="ascii" RangeMin="0" RangeMax="11">
          0 1 2 3 4 5
          6 7 8 9 10 11
        </DataArray>
        <DataArray type="Int32" Name="Proc_Num" format="ascii" RangeMin="0" RangeMax="0">
          0 0 0 0 0 0
          0 0 0 0 0 0
        </DataArray>
        <DataArray type="Float64" Name="Velocity" NumberOfComponents="3" format="ascii" RangeMin="0" RangeMax="0">
          0 0 0 0 0 0
          0 0 0 0 0 0
          0 0 0 0 0 0
          0 0 0 0 0 0
          0 0 0 0 0 0
          0 0 0 0 0 0
        </DataArray>
        <DataArray type="Float64" Name="Weighted_Volume" format="ascii" RangeMin="12" RangeMax="20">
          12 12 12 12 20 20
          20 20 12 12 12 12
        </DataArray>
      </PointData>
      <CellData>
      </CellData>
      <Points>
        <DataArray type="Float64" Name="Points" NumberOfComponents="3" format="ascii" RangeMin="0.70710678119" RangeMax="1.2247448714">
          -1 -0.5 0.5 -1 -0.5 -0.5
          -1 0.5 0.5 -1 0.5 -0.5
          0 -0.5 0.5 0 -0.5 -0.5
          0 0.5 0.5 0 0.5 -0.5
          1 -0.5 0.5 1 -0.5 -0.5
          1 0.5 0.5 1 0.5 -0.5
        </DataArray>
      </Points>
      <Cells>
        <DataArray type="Int64" Name="connectivity" format="ascii" RangeMin="0" RangeMax="11">
          0 1 2 3 4 5
          6 7 8 9 10 11
        </DataArray>
        <DataArray type="Int64" Name="offsets" format="ascii" RangeMin="1" RangeMax="12">
          1 2 3 4 5 6
          7 8 9 10 11 12
        </DataArray>
        <DataArray type="UInt8" Name="types" format="ascii" RangeMin="1" RangeMax="1">
          1 1 1 1 1 1
          1 1 1 1 1 1
        </DataArray>
      </Cells>
    </Piece>
  </UnstructuredGrid>
</VTKFile>
