<?xml version="1.0"?>
<VTKFile type="UnstructuredGrid" version="0.1" byte_order="LittleEndian" compressor="vtkZLibDataCompressor">
  <UnstructuredGrid>
    <Piece NumberOfPoints="12" NumberOfCells="12">
      <PointData>
        <DataArray type="Float64" Name="Dilatation" format="ascii" RangeMin="-0.023243366841" RangeMax="-0.020524626456">
          -0.023243366841 -0.023243366841 -0.023243366841 -0.023243366841 -0.020524626456 -0.020524626456
          -0.020524626456 -0.020524626456 -0.023243366841 -0.023243366841 -0.023243366841 -0.023243366841
        </DataArray>
        <DataArray type="Float64" Name="Displacement" NumberOfComponents="3" format="ascii" RangeMin="0" RangeMax="0.10061237207">
          0 0 0.0078373915671 0 0 0
          0 0.0078373915671 0.0078373915671 0 0.0078373915671 0
          -0.05 -0.010058207245 0.017895598812 -0.05 -0.010058207245 -0.010058207245
          -0.05 0.017895598812 0.017895598812 -0.05 0.017895598812 -0.010058207245
          -0.1 -9.5392300679e-17 0.0078373915671 -0.1 1.0126109064e-16 -4.8675273915e-17
          -0.1 0.0078373915671 0.0078373915671 -0.1 0.0078373915671 -1.6745585327e-17
        </DataArray>
        <DataArray type="Float64" Name="Force_Density" NumberOfComponents="3" format="ascii" RangeMin="4.1107761977e-05" RangeMax="13059341179">
          -13059341179 -1.6152858734e-05 1.4990568161e-05 -13059341179 8.4638595581e-06 -1.5018507838e-05
          -13059341179 1.541338861e-05 1.5139579773e-05 -13059341179 1.4428049326e-05 -1.4957040548e-05
          2.5451183319e-05 -2.7477741241e-05 -1.8954277039e-05 4.0531158447e-06 -4.6014785767e-05 -2.2038817406e-05
          2.6702880859e-05 2.321228385e-05 7.3432922363e-05 1.335144043e-05 -3.6157667637e-05 -1.4290213585e-05
          13059341179 5.0067901611e-05 -2.7179718018e-05 13059341179 -1.585483551e-05 9.024874197e-06
          13059341179 1.4999452537e-05 1.5735626221e-05 13059341179 1.5567271259e-05 -1.5735626221e-05
        </DataArray>
        <DataArray type="Int32" Name="ID" format="ascii" RangeMin="0" RangeMax="11">
          0 1 2 3 4 5
          6 7 8 9 10 11
        </DataArray>
        <DataArray type="Int32" Name="Proc_Num" format="ascii" RangeMin="0" RangeMax="0">
          0 0 0 0 0 0
          0 0 0 0 0 0
        </DataArray>
        <DataArray type="Float64" Name="Velocity" NumberOfComponents="3" format="ascii" RangeMin="0" RangeMax="2010.8582855">
          0 0 147.56531494 0 0 0
          0 147.56531494 147.56531494 0 147.56531494 0
          -1000 -209.05570565 356.62102058 -1000 -209.05570565 -209.05570565
          -1000 356.62102058 356.62102058 -1000 356.62102058 -209.05570565
          -2000 -5.6981459124e-11 147.56531494 -2000 4.3059939953e-11 -7.1384352451e-11
          -2000 147.56531494 147.56531494 -2000 147.56531494 -4.1112493423e-12
        </DataArray>
        <DataArray type="Float64" Name="Weighted_Volume" format="ascii" RangeMin="12" RangeMax="20">
          12 12 12 12 20 20
          20 20 12 12 12 12
        </DataArray>
      </PointData>
      <CellData>
      </CellData>
      <Points>
        <DataArray type="Float64" Name="Points" NumberOfComponents="3" format="ascii" RangeMin="0.70710678119" RangeMax="1.2247448714">
          -1 -0.5 0.5 -1 -0.5 -0.5
          -1 0.5 0.5 -1 0.5 -0.5
          0 -0.5 0.5 0 -0.5 -0.5
          0 0.5 0.5 0 0.5 -0.5
          1 -0.5 0.5 1 -0.5 -0.5
          1 0.5 0.5 1 0.5 -0.5
        </DataArray>
      </Points>
      <Cells>
        <DataArray type="Int64" Name="connectivity" format="ascii" RangeMin="0" RangeMax="11">
          0 1 2 3 4 5
          6 7 8 9 10 11
        </DataArray>
        <DataArray type="Int64" Name="offsets" format="ascii" RangeMin="1" RangeMax="12">
          1 2 3 4 5 6
          7 8 9 10 11 12
        </DataArray>
        <DataArray type="UInt8" Name="types" format="ascii" RangeMin="1" RangeMax="1">
          1 1 1 1 1 1
          1 1 1 1 1 1
        </DataArray>
      </Cells>
    </Piece>
  </UnstructuredGrid>
</VTKFile>
