<?xml version="1.0"?>
<VTKFile type="UnstructuredGrid" version="0.1" byte_order="LittleEndian" compressor="vtkZLibDataCompressor">
  <UnstructuredGrid>
    <Piece NumberOfPoints="12" NumberOfCells="12">
      <PointData>
        <DataArray type="Float64" Name="Dilatation" format="ascii" RangeMin="-0.019819284748" RangeMax="-0.017620628583">
          -0.019819284748 -0.019819284748 -0.019819284748 -0.019819284748 -0.017620628583 -0.017620628583
          -0.017620628583 -0.017620628583 -0.019819284748 -0.019819284748 -0.019819284748 -0.019819284748
        </DataArray>
        <DataArray type="Float64" Name="Displacement" NumberOfComponents="3" format="ascii" RangeMin="0" RangeMax="0.085530086169">
          0 0 0.0067229324006 0 0 0
          0 0.0067229324006 0.0067229324006 0 0.0067229324006 0
          -0.0425 -0.0084968937951 0.015219826196 -0.0425 -0.0084968937951 -0.0084968937951
          -0.0425 0.015219826196 0.015219826196 -0.0425 0.015219826196 -0.0084968937951
          -0.085 -6.2535678215e-17 0.0067229324006 -0.085 -1.3722190865e-16 -2.642446564e-16
          -0.085 0.0067229324006 0.0067229324006 -0.085 0.0067229324006 -1.910470757e-16
        </DataArray>
        <DataArray type="Float64" Name="Force_Density" NumberOfComponents="3" format="ascii" RangeMin="6.9073054507e-05" RangeMax="11160709701">
          -11160709701 -1.2874603271e-05 -7.9274177551e-05 -11160709701 -4.9591064453e-05 -2.9223971069e-05
          -11160709701 8.2878395915e-06 9.5367431641e-06 -11160709701 3.2797455788e-05 -3.1761825085e-05
          6.240606308e-05 4.1127204895e-05 -4.2080879211e-05 1.6212463379e-05 1.8835067749e-05 6.4447522163e-05
          0.00014686584473 5.0608068705e-06 -2.0265579224e-05 4.3869018555e-05 -8.4616243839e-05 8.6225569248e-05
          11160709701 3.5047531128e-05 7.5101852417e-06 11160709701 0.00010883808136 6.7234039307e-05
          11160709701 -6.5445899963e-05 -9.0837478638e-05 11160709701 -3.5762786865e-05 5.8650970459e-05
        </DataArray>
        <DataArray type="Int32" Name="ID" format="ascii" RangeMin="0" RangeMax="11">
          0 1 2 3 4 5
          6 7 8 9 10 11
        </DataArray>
        <DataArray type="Int32" Name="Proc_Num" format="ascii" RangeMin="0" RangeMax="0">
          0 0 0 0 0 0
          0 0 0 0 0 0
        </DataArray>
        <DataArray type="Float64" Name="Velocity" NumberOfComponents="3" format="ascii" RangeMin="0" RangeMax="2011.3126874">
          0 0 150.62988799 0 0 0
          0 150.62988799 150.62988799 0 150.62988799 0
          -1000 -206.4329915 357.06287948 -1000 -206.4329915 -206.4329915
          -1000 357.06287948 357.06287948 -1000 357.06287948 -206.4329915
          -2000 -8.9167205366e-13 150.62988799 -2000 -8.1101997767e-11 -1.1952842927e-10
          -2000 150.62988799 150.62988799 -2000 150.62988799 -7.1744062867e-11
        </DataArray>
        <DataArray type="Float64" Name="Weighted_Volume" format="ascii" RangeMin="12" RangeMax="20">
          12 12 12 12 20 20
          20 20 12 12 12 12
        </DataArray>
      </PointData>
      <CellData>
      </CellData>
      <Points>
        <DataArray type="Float64" Name="Points" NumberOfComponents="3" format="ascii" RangeMin="0.70710678119" RangeMax="1.2247448714">
          -1 -0.5 0.5 -1 -0.5 -0.5
          -1 0.5 0.5 -1 0.5 -0.5
          0 -0.5 0.5 0 -0.5 -0.5
          0 0.5 0.5 0 0.5 -0.5
          1 -0.5 0.5 1 -0.5 -0.5
          1 0.5 0.5 1 0.5 -0.5
        </DataArray>
      </Points>
      <Cells>
        <DataArray type="Int64" Name="connectivity" format="ascii" RangeMin="0" RangeMax="11">
          0 1 2 3 4 5
          6 7 8 9 10 11
        </DataArray>
        <DataArray type="Int64" Name="offsets" format="ascii" RangeMin="1" RangeMax="12">
          1 2 3 4 5 6
          7 8 9 10 11 12
        </DataArray>
        <DataArray type="UInt8" Name="types" format="ascii" RangeMin="1" RangeMax="1">
          1 1 1 1 1 1
          1 1 1 1 1 1
        </DataArray>
      </Cells>
    </Piece>
  </UnstructuredGrid>
</VTKFile>
