<?xml version="1.0"?>
<VTKFile type="UnstructuredGrid" version="0.1" byte_order="LittleEndian" compressor="vtkZLibDataCompressor">
  <UnstructuredGrid>
    <Piece NumberOfPoints="12" NumberOfCells="12">
      <PointData>
        <DataArray type="Float64" Name="Dilatation" format="ascii" RangeMin="-0.022104315829" RangeMax="-0.019563584386">
          -0.022104315829 -0.022104315829 -0.022104315829 -0.022104315829 -0.019563584386 -0.019563584386
          -0.019563584386 -0.019563584386 -0.022104315829 -0.022104315829 -0.022104315829 -0.022104315829
        </DataArray>
        <DataArray type="Float64" Name="Displacement" NumberOfComponents="3" format="ascii" RangeMin="0" RangeMax="0.095585335359">
          0 0 0.0074684782798 0 0 0
          0 0.0074684782798 0.0074684782798 0 0.0074684782798 0
          -0.0475 -0.0095355679805 0.01700404626 -0.0475 -0.0095355679805 -0.0095355679805
          -0.0475 0.01700404626 0.01700404626 -0.0475 0.01700404626 -0.0095355679805
          -0.095 -3.4634018277e-17 0.0074684782798 -0.095 -8.1412221479e-17 -2.021516215e-16
          -0.095 0.0074684782798 0.0074684782798 -0.095 0.0074684782798 -9.215418346e-17
        </DataArray>
        <DataArray type="Float64" Name="Force_Density" NumberOfComponents="3" format="ascii" RangeMin="6.1148082988e-05" RangeMax="12428831960">
          -12428831960 1.7404556274e-05 9.7453594208e-06 -12428831960 -3.2186508179e-06 -2.9191374779e-05
          -12428831960 -1.6388483346e-05 -1.4424324036e-05 -12428831960 -1.7806887627e-05 -7.9646706581e-06
          3.8504600525e-05 4.4584274292e-05 -1.9431114197e-05 -4.2915344238e-06 -1.0967254639e-05 -6.0003250837e-05
          4.2915344238e-06 1.1274591088e-05 8.5115432739e-05 -4.1007995605e-05 -4.531443119e-05 -5.9902667999e-06
          12428831960 1.7762184143e-05 7.0333480835e-06 12428831960 1.6093254089e-05 1.4107975961e-05
          12428831960 3.0581617345e-06 2.908706665e-05 12428831960 -1.7681939601e-05 -8.1062316895e-06
        </DataArray>
        <DataArray type="Int32" Name="ID" format="ascii" RangeMin="0" RangeMax="11">
          0 1 2 3 4 5
          6 7 8 9 10 11
        </DataArray>
        <DataArray type="Int32" Name="Proc_Num" format="ascii" RangeMin="0" RangeMax="0">
          0 0 0 0 0 0
          0 0 0 0 0 0
        </DataArray>
        <DataArray type="Float64" Name="Velocity" NumberOfComponents="3" format="ascii" RangeMin="0" RangeMax="0">
          0 0 0 0 0 0
          0 0 0 0 0 0
          0 0 0 0 0 0
          0 0 0 0 0 0
          0 0 0 0 0 0
          0 0 0 0 0 0
        </DataArray>
        <DataArray type="Float64" Name="Weighted_Volume" format="ascii" RangeMin="12" RangeMax="20">
          12 12 12 12 20 20
          20 20 12 12 12 12
        </DataArray>
      </PointData>
      <CellData>
      </CellData>
      <Points>
        <DataArray type="Float64" Name="Points" NumberOfComponents="3" format="ascii" RangeMin="0.70710678119" RangeMax="1.2247448714">
          -1 -0.5 0.5 -1 -0.5 -0.5
          -1 0.5 0.5 -1 0.5 -0.5
          0 -0.5 0.5 0 -0.5 -0.5
          0 0.5 0.5 0 0.5 -0.5
          1 -0.5 0.5 1 -0.5 -0.5
          1 0.5 0.5 1 0.5 -0.5
        </DataArray>
      </Points>
      <Cells>
        <DataArray type="Int64" Name="connectivity" format="ascii" RangeMin="0" RangeMax="11">
          0 1 2 3 4 5
          6 7 8 9 10 11
        </DataArray>
        <DataArray type="Int64" Name="offsets" format="ascii" RangeMin="1" RangeMax="12">
          1 2 3 4 5 6
          7 8 9 10 11 12
        </DataArray>
        <DataArray type="UInt8" Name="types" format="ascii" RangeMin="1" RangeMax="1">
          1 1 1 1 1 1
          1 1 1 1 1 1
        </DataArray>
      </Cells>
    </Piece>
  </UnstructuredGrid>
</VTKFile>
