<?xml version="1.0"?>
<VTKFile type="UnstructuredGrid" version="0.1" byte_order="LittleEndian" compressor="vtkZLibDataCompressor">
  <UnstructuredGrid>
    <Piece NumberOfPoints="12" NumberOfCells="12">
      <PointData>
        <DataArray type="Float64" Name="Dilatation" format="ascii" RangeMin="-0.016374080047" RangeMax="-0.014654295893">
          -0.016374080047 -0.016374080047 -0.016374080047 -0.016374080047 -0.014654295893 -0.014654295893
          -0.014654295893 -0.014654295893 -0.016374080047 -0.016374080047 -0.016374080047 -0.016374080047
        </DataArray>
        <DataArray type="Float64" Name="Displacement" NumberOfComponents="3" format="ascii" RangeMin="0" RangeMax="0.070444312293">
          0 0 0.0055857467937 0 0 0
          0 0.0055857467937 0.0055857467937 0 0.0055857467937 0
          -0.035 -0.0069550402 0.012540786994 -0.035 -0.0069550402 -0.0069550402
          -0.035 0.012540786994 0.012540786994 -0.035 0.012540786994 -0.0069550402
          -0.07 -4.6580415905e-17 0.0055857467937 -0.07 -1.628422995e-16 2.0158868331e-17
          -0.07 0.0055857467937 0.0055857467937 -0.07 0.0055857467937 -1.1873581526e-16
        </DataArray>
        <DataArray type="Float64" Name="Force_Density" NumberOfComponents="3" format="ascii" RangeMin="2.9575165081e-05" RangeMax="9240779908.3">
          -9240779908.3 -7.0571899414e-05 9.4652175903e-05 -9240779908.3 -5.1379203796e-05 -5.1228329539e-05
          -9240779908.3 6.6957436502e-05 9.01222229e-05 -9240779908.3 7.6379626989e-05 -2.5881454349e-05
          -2.0265579224e-06 7.1167945862e-05 -1.9431114197e-05 7.8678131104e-06 -0.00011444091797 -6.511900574e-05
          -5.8531761169e-05 -2.2082589567e-05 -4.3392181396e-05 -1.5735626221e-05 2.5041401386e-05 9.3132257462e-08
          9240779908.3 9.548664093e-05 -5.3405761719e-05 9240779908.3 2.1576881409e-05 2.2470427694e-05
          9240779908.3 -6.9976899738e-05 -2.6226043701e-06 9240779908.3 -2.8550101461e-05 5.3644180298e-05
        </DataArray>
        <DataArray type="Int32" Name="ID" format="ascii" RangeMin="0" RangeMax="11">
          0 1 2 3 4 5
          6 7 8 9 10 11
        </DataArray>
        <DataArray type="Int32" Name="Proc_Num" format="ascii" RangeMin="0" RangeMax="0">
          0 0 0 0 0 0
          0 0 0 0 0 0
        </DataArray>
        <DataArray type="Float64" Name="Velocity" NumberOfComponents="3" format="ascii" RangeMin="0" RangeMax="0">
          0 0 0 0 0 0
          0 0 0 0 0 0
          0 0 0 0 0 0
          0 0 0 0 0 0
          0 0 0 0 0 0
          0 0 0 0 0 0
        </DataArray>
        <DataArray type="Float64" Name="Weighted_Volume" format="ascii" RangeMin="12" RangeMax="20">
          12 12 12 12 20 20
          20 20 12 12 12 12
        </DataArray>
      </PointData>
      <CellData>
      </CellData>
      <Points>
        <DataArray type="Float64" Name="Points" NumberOfComponents="3" format="ascii" RangeMin="0.70710678119" RangeMax="1.2247448714">
          -1 -0.5 0.5 -1 -0.5 -0.5
          -1 0.5 0.5 -1 0.5 -0.5
          0 -0.5 0.5 0 -0.5 -0.5
          0 0.5 0.5 0 0.5 -0.5
          1 -0.5 0.5 1 -0.5 -0.5
          1 0.5 0.5 1 0.5 -0.5
        </DataArray>
      </Points>
      <Cells>
        <DataArray type="Int64" Name="connectivity" format="ascii" RangeMin="0" RangeMax="11">
          0 1 2 3 4 5
          6 7 8 9 10 11
        </DataArray>
        <DataArray type="Int64" Name="offsets" format="ascii" RangeMin="1" RangeMax="12">
          1 2 3 4 5 6
          7 8 9 10 11 12
        </DataArray>
        <DataArray type="UInt8" Name="types" format="ascii" RangeMin="1" RangeMax="1">
          1 1 1 1 1 1
          1 1 1 1 1 1
        </DataArray>
      </Cells>
    </Piece>
  </UnstructuredGrid>
</VTKFile>
