<?xml version="1.0"?>
<VTKFile type="UnstructuredGrid" version="0.1" byte_order="LittleEndian" compressor="vtkZLibDataCompressor">
  <UnstructuredGrid>
    <Piece NumberOfPoints="12" NumberOfCells="12">
      <PointData>
        <DataArray type="Float64" Name="Dilatation" format="ascii" RangeMin="-0.0082498037" RangeMax="-0.0074930201004">
          -0.0082498037 -0.0082498037 -0.0082498037 -0.0082498037 -0.0074930201004 -0.0074930201004
          -0.0074930201004 -0.0074930201004 -0.0082498037 -0.0082498037 -0.0082498037 -0.0082498037
        </DataArray>
        <DataArray type="Float64" Name="Displacement" NumberOfComponents="3" format="ascii" RangeMin="0" RangeMax="0.03523100722">
          0 0 0.0028481458656 0 0 0
          0 0.0028481458656 0.0028481458656 0 0.0028481458656 0
          -0.0175 -0.0034296932159 0.0062778390815 -0.0175 -0.0034296932159 -0.0034296932159
          -0.0175 0.0062778390815 0.0062778390815 -0.0175 0.0062778390815 -0.0034296932159
          -0.035 -1.0001284645e-16 0.0028481458656 -0.035 -5.8021478856e-17 1.4472353178e-16
          -0.035 0.0028481458656 0.0028481458656 -0.035 0.0028481458656 -9.6735172541e-18
        </DataArray>
        <DataArray type="Float64" Name="Force_Density" NumberOfComponents="3" format="ascii" RangeMin="7.915147292e-05" RangeMax="4678225170.5">
          -4678225170.5 -0.00012366473675 0.00012329220772 -4678225170.5 -0.00010371208191 -7.9676508904e-05
          -4678225170.5 0.00010388786905 0.0001032948494 -4678225170.5 0.00010377215222 -7.941853255e-05
          6.4671039581e-05 -3.1530857086e-05 3.2991170883e-05 6.5386295319e-05 -5.6385993958e-05 -5.5497977883e-05
          6.5565109253e-05 5.5491458625e-05 7.8678131104e-06 0.00016450881958 3.2124109566e-05 -5.5990181863e-05
          4678225170.5 2.7477741241e-05 5.8054924011e-05 4678225170.5 6.6757202148e-06 -1.8448577928e-05
          4678225170.5 -9.3285030553e-05 1.7642974854e-05 4678225170.5 7.8739616488e-05 -5.4538249969e-05
        </DataArray>
        <DataArray type="Int32" Name="ID" format="ascii" RangeMin="0" RangeMax="11">
          0 1 2 3 4 5
          6 7 8 9 10 11
        </DataArray>
        <DataArray type="Int32" Name="Proc_Num" format="ascii" RangeMin="0" RangeMax="0">
          0 0 0 0 0 0
          0 0 0 0 0 0
        </DataArray>
        <DataArray type="Float64" Name="Velocity" NumberOfComponents="3" format="ascii" RangeMin="0" RangeMax="0">
          0 0 0 0 0 0
          0 0 0 0 0 0
          0 0 0 0 0 0
          0 0 0 0 0 0
          0 0 0 0 0 0
          0 0 0 0 0 0
        </DataArray>
        <DataArray type="Float64" Name="Weighted_Volume" format="ascii" RangeMin="12" RangeMax="20">
          12 12 12 12 20 20
          20 20 12 12 12 12
        </DataArray>
      </PointData>
      <CellData>
      </CellData>
      <Points>
        <DataArray type="Float64" Name="Points" NumberOfComponents="3" format="ascii" RangeMin="0.70710678119" RangeMax="1.2247448714">
          -1 -0.5 0.5 -1 -0.5 -0.5
          -1 0.5 0.5 -1 0.5 -0.5
          0 -0.5 0.5 0 -0.5 -0.5
          0 0.5 0.5 0 0.5 -0.5
          1 -0.5 0.5 1 -0.5 -0.5
          1 0.5 0.5 1 0.5 -0.5
        </DataArray>
      </Points>
      <Cells>
        <DataArray type="Int64" Name="connectivity" format="ascii" RangeMin="0" RangeMax="11">
          0 1 2 3 4 5
          6 7 8 9 10 11
        </DataArray>
        <DataArray type="Int64" Name="offsets" format="ascii" RangeMin="1" RangeMax="12">
          1 2 3 4 5 6
          7 8 9 10 11 12
        </DataArray>
        <DataArray type="UInt8" Name="types" format="ascii" RangeMin="1" RangeMax="1">
          1 1 1 1 1 1
          1 1 1 1 1 1
        </DataArray>
      </Cells>
    </Piece>
  </UnstructuredGrid>
</VTKFile>
