<?xml version="1.0"?>
<VTKFile type="UnstructuredGrid" version="0.1" byte_order="LittleEndian" compressor="vtkZLibDataCompressor">
  <UnstructuredGrid>
    <Piece NumberOfPoints="12" NumberOfCells="12">
      <PointData>
        <DataArray type="Float64" Name="Dilatation" format="ascii" RangeMin="-0.0094179332782" RangeMax="-0.0085364776772">
          -0.0094179332782 -0.0094179332782 -0.0094179332782 -0.0094179332782 -0.0085364776772 -0.0085364776772
          -0.0085364776772 -0.0085364776772 -0.0094179332782 -0.0094179332782 -0.0094179332782 -0.0094179332782
        </DataArray>
        <DataArray type="Float64" Name="Displacement" NumberOfComponents="3" format="ascii" RangeMin="0" RangeMax="0.040262584227">
          0 0 0.0032462046028 0 0 0
          0 0.0032462046028 0.0032462046028 0 0.0032462046028 0
          -0.02 -0.003927304182 0.0071735087848 -0.02 -0.003927304182 -0.003927304182
          -0.02 0.0071735087848 0.0071735087848 -0.02 0.0071735087848 -0.003927304182
          -0.04 2.6590323047e-19 0.0032462046028 -0.04 -6.7820217219e-17 -1.8325792411e-16
          -0.04 0.0032462046028 0.0032462046028 -0.04 0.0032462046028 -1.6873112166e-16
        </DataArray>
        <DataArray type="Float64" Name="Force_Density" NumberOfComponents="3" format="ascii" RangeMin="2.1469817268e-05" RangeMax="5337103762.3">
          -5337103762.3 -1.2040138245e-05 -1.2755393982e-05 -5337103762.3 2.533197403e-05 -4.1997525841e-05
          -5337103762.3 4.2452709749e-05 1.7762184143e-05 -5337103762.3 -3.1488016248e-05 -1.1714175344e-05
          7.4505805969e-07 -1.4871358871e-05 1.5467405319e-05 -2.4676322937e-05 -1.3947486877e-05 9.0976245701e-06
          2.5153160095e-05 1.5617348254e-05 -9.5367431641e-06 -5.9127807617e-05 -3.3220276237e-05 1.020077616e-05
          5337103762.3 -4.2855739594e-05 8.5592269897e-05 5337103762.3 5.5432319641e-05 -5.5407740405e-05
          5337103762.3 1.1503696442e-05 -3.1709671021e-05 5337103762.3 -1.3113021851e-06 2.509355545e-05
        </DataArray>
        <DataArray type="Int32" Name="ID" format="ascii" RangeMin="0" RangeMax="11">
          0 1 2 3 4 5
          6 7 8 9 10 11
        </DataArray>
        <DataArray type="Int32" Name="Proc_Num" format="ascii" RangeMin="0" RangeMax="0">
          0 0 0 0 0 0
          0 0 0 0 0 0
        </DataArray>
        <DataArray type="Float64" Name="Velocity" NumberOfComponents="3" format="ascii" RangeMin="0" RangeMax="2012.6361426">
          0 0 159.22349489 0 0 0
          0 159.22349489 159.22349489 0 159.22349489 0
          -1000 -199.04438643 358.26788132 -1000 -199.04438643 -199.04438643
          -1000 358.26788132 358.26788132 -1000 358.26788132 -199.04438643
          -2000 -2.494307472e-11 159.22349489 -2000 -9.7782283743e-11 -6.4434598813e-11
          -2000 159.22349489 159.22349489 -2000 159.22349489 -6.7312850027e-11
        </DataArray>
        <DataArray type="Float64" Name="Weighted_Volume" format="ascii" RangeMin="12" RangeMax="20">
          12 12 12 12 20 20
          20 20 12 12 12 12
        </DataArray>
      </PointData>
      <CellData>
      </CellData>
      <Points>
        <DataArray type="Float64" Name="Points" NumberOfComponents="3" format="ascii" RangeMin="0.70710678119" RangeMax="1.2247448714">
          -1 -0.5 0.5 -1 -0.5 -0.5
          -1 0.5 0.5 -1 0.5 -0.5
          0 -0.5 0.5 0 -0.5 -0.5
          0 0.5 0.5 0 0.5 -0.5
          1 -0.5 0.5 1 -0.5 -0.5
          1 0.5 0.5 1 0.5 -0.5
        </DataArray>
      </Points>
      <Cells>
        <DataArray type="Int64" Name="connectivity" format="ascii" RangeMin="0" RangeMax="11">
          0 1 2 3 4 5
          6 7 8 9 10 11
        </DataArray>
        <DataArray type="Int64" Name="offsets" format="ascii" RangeMin="1" RangeMax="12">
          1 2 3 4 5 6
          7 8 9 10 11 12
        </DataArray>
        <DataArray type="UInt8" Name="types" format="ascii" RangeMin="1" RangeMax="1">
          1 1 1 1 1 1
          1 1 1 1 1 1
        </DataArray>
      </Cells>
    </Piece>
  </UnstructuredGrid>
</VTKFile>
