<?xml version="1.0"?>
<VTKFile type="UnstructuredGrid" version="0.1" byte_order="LittleEndian" compressor="vtkZLibDataCompressor">
  <UnstructuredGrid>
    <Piece NumberOfPoints="12" NumberOfCells="12">
      <PointData>
        <DataArray type="Float64" Name="Dilatation" format="ascii" RangeMin="-0.014065247574" RangeMax="-0.012642346089">
          -0.014065247574 -0.014065247574 -0.014065247574 -0.014065247574 -0.012642346089 -0.012642346089
          -0.012642346089 -0.012642346089 -0.014065247574 -0.014065247574 -0.014065247574 -0.014065247574
        </DataArray>
        <DataArray type="Float64" Name="Displacement" NumberOfComponents="3" format="ascii" RangeMin="0" RangeMax="0.060385226944">
          0 0 0.0048153729378 0 0 0
          0 0.0048153729378 0.0048153729378 0 0.0048153729378 0
          -0.03 -0.0059376456358 0.010753018574 -0.03 -0.0059376456358 -0.0059376456358
          -0.03 0.010753018574 0.010753018574 -0.03 0.010753018574 -0.0059376456358
          -0.06 1.8933985508e-16 0.0048153729378 -0.06 2.0694199417e-17 2.2310153785e-18
          -0.06 0.0048153729378 0.0048153729378 -0.06 0.0048153729378 -2.3329233063e-16
        </DataArray>
        <DataArray type="Float64" Name="Force_Density" NumberOfComponents="3" format="ascii" RangeMin="6.416705403e-05" RangeMax="7949004676.9">
          -7949004676.9 2.7239322662e-05 -2.5480985641e-05 -7949004676.9 2.0265579224e-06 2.0731240511e-06
          -7949004676.9 -2.6326626539e-05 -2.5510787964e-05 -7949004676.9 -2.559274435e-05 1.7508864403e-06
          0.0001021027565 9.6619129181e-05 1.1026859283e-06 5.841255188e-05 2.646446228e-05 2.239830792e-06
          -6.3300132751e-05 3.6329030991e-05 6.4134597778e-05 -8.7261199951e-05 8.6061656475e-05 -8.8516622782e-05
          7949004676.9 -0.00010550022125 1.3113021851e-05 7949004676.9 -6.890296936e-05 -4.4568815096e-05
          7949004676.9 2.2217073305e-05 5.3286552429e-05 7949004676.9 -7.0802588395e-05 4.5597553253e-05
        </DataArray>
        <DataArray type="Int32" Name="ID" format="ascii" RangeMin="0" RangeMax="11">
          0 1 2 3 4 5
          6 7 8 9 10 11
        </DataArray>
        <DataArray type="Int32" Name="Proc_Num" format="ascii" RangeMin="0" RangeMax="0">
          0 0 0 0 0 0
          0 0 0 0 0 0
        </DataArray>
        <DataArray type="Float64" Name="Velocity" NumberOfComponents="3" format="ascii" RangeMin="0" RangeMax="0">
          0 0 0 0 0 0
          0 0 0 0 0 0
          0 0 0 0 0 0
          0 0 0 0 0 0
          0 0 0 0 0 0
          0 0 0 0 0 0
        </DataArray>
        <DataArray type="Float64" Name="Weighted_Volume" format="ascii" RangeMin="12" RangeMax="20">
          12 12 12 12 20 20
          20 20 12 12 12 12
        </DataArray>
      </PointData>
      <CellData>
      </CellData>
      <Points>
        <DataArray type="Float64" Name="Points" NumberOfComponents="3" format="ascii" RangeMin="0.70710678119" RangeMax="1.2247448714">
          -1 -0.5 0.5 -1 -0.5 -0.5
          -1 0.5 0.5 -1 0.5 -0.5
          0 -0.5 0.5 0 -0.5 -0.5
          0 0.5 0.5 0 0.5 -0.5
          1 -0.5 0.5 1 -0.5 -0.5
          1 0.5 0.5 1 0.5 -0.5
        </DataArray>
      </Points>
      <Cells>
        <DataArray type="Int64" Name="connectivity" format="ascii" RangeMin="0" RangeMax="11">
          0 1 2 3 4 5
          6 7 8 9 10 11
        </DataArray>
        <DataArray type="Int64" Name="offsets" format="ascii" RangeMin="1" RangeMax="12">
          1 2 3 4 5 6
          7 8 9 10 11 12
        </DataArray>
        <DataArray type="UInt8" Name="types" format="ascii" RangeMin="1" RangeMax="1">
          1 1 1 1 1 1
          1 1 1 1 1 1
        </DataArray>
      </Cells>
    </Piece>
  </UnstructuredGrid>
</VTKFile>
