<?xml version="1.0"?>
<VTKFile type="UnstructuredGrid" version="0.1" byte_order="LittleEndian" compressor="vtkZLibDataCompressor">
  <UnstructuredGrid>
    <Piece NumberOfPoints="12" NumberOfCells="12">
      <PointData>
        <DataArray type="Float64" Name="Dilatation" format="ascii" RangeMin="-0.014065247574" RangeMax="-0.012642346089">
          -0.014065247574 -0.014065247574 -0.014065247574 -0.014065247574 -0.012642346089 -0.012642346089
          -0.012642346089 -0.012642346089 -0.014065247574 -0.014065247574 -0.014065247574 -0.014065247574
        </DataArray>
        <DataArray type="Float64" Name="Displacement" NumberOfComponents="3" format="ascii" RangeMin="0" RangeMax="0.060385226944">
          0 0 0.0048153729378 0 0 0
          0 0.0048153729378 0.0048153729378 0 0.0048153729378 0
          -0.03 -0.0059376456358 0.010753018574 -0.03 -0.0059376456358 -0.0059376456358
          -0.03 0.010753018574 0.010753018574 -0.03 0.010753018574 -0.0059376456358
          -0.06 1.4699788515e-16 0.0048153729378 -0.06 2.7772233771e-16 -1.7542219224e-16
          -0.06 0.0048153729378 0.0048153729378 -0.06 0.0048153729378 -7.0365454915e-17
        </DataArray>
        <DataArray type="Float64" Name="Force_Density" NumberOfComponents="3" format="ascii" RangeMin="7.5913958595e-05" RangeMax="7949004676.9">
          -7949004676.9 4.6342611313e-05 -4.5508146286e-05 -7949004676.9 5.042552948e-05 -2.2267457098e-05
          -7949004676.9 1.3425480574e-05 3.8743019104e-05 -7949004676.9 6.2089413404e-05 -1.3388693333e-05
          -7.152557373e-07 -7.7992677689e-05 0.00015237927437 4.7922134399e-05 -7.6532363892e-05 -8.0457888544e-05
          -6.377696991e-05 3.9031729102e-05 1.3113021851e-05 -8.3446502686e-05 -5.5566430092e-05 -4.2576342821e-05
          7949004676.9 -0.00011211633682 4.4941902161e-05 7949004676.9 -7.4207782745e-05 -9.9436006681e-05
          7949004676.9 0.00014217030485 9.9301338196e-05 7949004676.9 4.4309439862e-05 -4.4405460358e-05
        </DataArray>
        <DataArray type="Int32" Name="ID" format="ascii" RangeMin="0" RangeMax="11">
          0 1 2 3 4 5
          6 7 8 9 10 11
        </DataArray>
        <DataArray type="Int32" Name="Proc_Num" format="ascii" RangeMin="0" RangeMax="0">
          0 0 0 0 0 0
          0 0 0 0 0 0
        </DataArray>
        <DataArray type="Float64" Name="Velocity" NumberOfComponents="3" format="ascii" RangeMin="0" RangeMax="2012.0556335">
          0 0 155.5118519 0 0 0
          0 155.5118519 155.5118519 0 155.5118519 0
          -1000 -202.24405856 357.75591046 -1000 -202.24405856 -202.24405856
          -1000 357.75591046 357.75591046 -1000 357.75591046 -202.24405856
          -2000 1.8140834848e-10 155.5118519 -2000 2.8220986746e-10 -1.0316982094e-10
          -2000 155.5118519 155.5118519 -2000 155.5118519 2.4296204367e-11
        </DataArray>
        <DataArray type="Float64" Name="Weighted_Volume" format="ascii" RangeMin="12" RangeMax="20">
          12 12 12 12 20 20
          20 20 12 12 12 12
        </DataArray>
      </PointData>
      <CellData>
      </CellData>
      <Points>
        <DataArray type="Float64" Name="Points" NumberOfComponents="3" format="ascii" RangeMin="0.70710678119" RangeMax="1.2247448714">
          -1 -0.5 0.5 -1 -0.5 -0.5
          -1 0.5 0.5 -1 0.5 -0.5
          0 -0.5 0.5 0 -0.5 -0.5
          0 0.5 0.5 0 0.5 -0.5
          1 -0.5 0.5 1 -0.5 -0.5
          1 0.5 0.5 1 0.5 -0.5
        </DataArray>
      </Points>
      <Cells>
        <DataArray type="Int64" Name="connectivity" format="ascii" RangeMin="0" RangeMax="11">
          0 1 2 3 4 5
          6 7 8 9 10 11
        </DataArray>
        <DataArray type="Int64" Name="offsets" format="ascii" RangeMin="1" RangeMax="12">
          1 2 3 4 5 6
          7 8 9 10 11 12
        </DataArray>
        <DataArray type="UInt8" Name="types" format="ascii" RangeMin="1" RangeMax="1">
          1 1 1 1 1 1
          1 1 1 1 1 1
        </DataArray>
      </Cells>
    </Piece>
  </UnstructuredGrid>
</VTKFile>
