<?xml version="1.0"?>
<VTKFile type="UnstructuredGrid" version="0.1" byte_order="LittleEndian" compressor="vtkZLibDataCompressor">
  <UnstructuredGrid>
    <Piece NumberOfPoints="12" NumberOfCells="12">
      <PointData>
        <DataArray type="Float64" Name="Dilatation" format="ascii" RangeMin="-0.018673259798" RangeMax="-0.016638752786">
          -0.018673259798 -0.018673259798 -0.018673259798 -0.018673259798 -0.016638752786 -0.016638752786
          -0.016638752786 -0.016638752786 -0.018673259798 -0.018673259798 -0.018673259798 -0.018673259798
        </DataArray>
        <DataArray type="Float64" Name="Displacement" NumberOfComponents="3" format="ascii" RangeMin="0" RangeMax="0.080501878932">
          0 0 0.0063463576806 0 0 0
          0 0.0063463576806 0.0063463576806 0 0.0063463576806 0
          -0.04 -0.0079808113163 0.014327168997 -0.04 -0.0079808113163 -0.0079808113163
          -0.04 0.014327168997 0.014327168997 -0.04 0.014327168997 -0.0079808113163
          -0.08 -6.0306498081e-17 0.0063463576806 -0.08 6.5533085768e-17 3.4576416775e-17
          -0.08 0.0063463576806 0.0063463576806 -0.08 0.0063463576806 -1.1686918534e-17
        </DataArray>
        <DataArray type="Float64" Name="Force_Density" NumberOfComponents="3" format="ascii" RangeMin="5.432571019e-05" RangeMax="10523098473">
          -10523098473 -1.9282102585e-05 -6.9737434387e-06 -10523098473 1.4066696167e-05 -4.7385692596e-06
          -10523098473 1.033116132e-05 -1.5377998352e-05 -10523098473 -8.7168067694e-05 2.0612031221e-05
          4.9471855164e-06 2.247095108e-05 -7.1227550507e-05 -3.8385391235e-05 2.7894973755e-05 5.6132674217e-05
          6.2465667725e-05 1.3213604689e-05 1.4066696167e-05 3.7670135498e-05 3.8269907236e-05 8.225440979e-06
          10523098473 -4.6491622925e-06 4.5299530029e-06 10523098473 -2.8252601624e-05 -4.3256664379e-06
          10523098473 6.1815642899e-06 4.2915344238e-06 10523098473 5.9095192161e-06 -5.1259994507e-06
        </DataArray>
        <DataArray type="Int32" Name="ID" format="ascii" RangeMin="0" RangeMax="11">
          0 1 2 3 4 5
          6 7 8 9 10 11
        </DataArray>
        <DataArray type="Int32" Name="Proc_Num" format="ascii" RangeMin="0" RangeMax="0">
          0 0 0 0 0 0
          0 0 0 0 0 0
        </DataArray>
        <DataArray type="Float64" Name="Velocity" NumberOfComponents="3" format="ascii" RangeMin="0" RangeMax="2011.4627512">
          0 0 151.62849263 0 0 0
          0 151.62849263 151.62849263 0 151.62849263 0
          -1000 -205.57746344 357.20595607 -1000 -205.57746344 -205.57746344
          -1000 357.20595607 357.20595607 -1000 357.20595607 -205.57746344
          -2000 -1.7737940035e-11 151.62849263 -2000 1.0117629474e-11 -9.4364299475e-12
          -2000 151.62849263 151.62849263 -2000 151.62849263 -2.5906218803e-11
        </DataArray>
        <DataArray type="Float64" Name="Weighted_Volume" format="ascii" RangeMin="12" RangeMax="20">
          12 12 12 12 20 20
          20 20 12 12 12 12
        </DataArray>
      </PointData>
      <CellData>
      </CellData>
      <Points>
        <DataArray type="Float64" Name="Points" NumberOfComponents="3" format="ascii" RangeMin="0.70710678119" RangeMax="1.2247448714">
          -1 -0.5 0.5 -1 -0.5 -0.5
          -1 0.5 0.5 -1 0.5 -0.5
          0 -0.5 0.5 0 -0.5 -0.5
          0 0.5 0.5 0 0.5 -0.5
          1 -0.5 0.5 1 -0.5 -0.5
          1 0.5 0.5 1 0.5 -0.5
        </DataArray>
      </Points>
      <Cells>
        <DataArray type="Int64" Name="connectivity" format="ascii" RangeMin="0" RangeMax="11">
          0 1 2 3 4 5
          6 7 8 9 10 11
        </DataArray>
        <DataArray type="Int64" Name="offsets" format="ascii" RangeMin="1" RangeMax="12">
          1 2 3 4 5 6
          7 8 9 10 11 12
        </DataArray>
        <DataArray type="UInt8" Name="types" format="ascii" RangeMin="1" RangeMax="1">
          1 1 1 1 1 1
          1 1 1 1 1 1
        </DataArray>
      </Cells>
    </Piece>
  </UnstructuredGrid>
</VTKFile>
