<?xml version="1.0"?>
<VTKFile type="UnstructuredGrid" version="0.1" byte_order="LittleEndian" compressor="vtkZLibDataCompressor">
  <UnstructuredGrid>
    <Piece NumberOfPoints="12" NumberOfCells="12">
      <PointData>
        <DataArray type="Float64" Name="Dilatation" format="ascii" RangeMin="-0.0011864963615" RangeMax="-0.0010905779356">
          -0.0011864963615 -0.0011864963615 -0.0011864963615 -0.0011864963615 -0.0010905779356 -0.0010905779356
          -0.0010905779356 -0.0010905779356 -0.0011864963615 -0.0011864963615 -0.0011864963615 -0.0011864963615
        </DataArray>
        <DataArray type="Float64" Name="Displacement" NumberOfComponents="3" format="ascii" RangeMin="0" RangeMax="0.0050340506298">
          0 0 0.0004133193339 0 0 0
          0 0.0004133193339 0.0004133193339 0 0.0004133193339 0
          -0.0025 -0.00048434108217 0.00089766041608 -0.0025 -0.00048434108217 -0.00048434108217
          -0.0025 0.00089766041608 0.00089766041608 -0.0025 0.00089766041608 -0.00048434108217
          -0.005 7.5401507411e-17 0.0004133193339 -0.005 1.9517280391e-17 2.6839250123e-18
          -0.005 0.0004133193339 0.0004133193339 -0.005 0.0004133193339 1.5157464547e-17
        </DataArray>
        <DataArray type="Float64" Name="Force_Density" NumberOfComponents="3" format="ascii" RangeMin="4.7274447176e-05" RangeMax="675395295.67">
          -675395295.67 8.8142231107e-05 -2.0368024707e-05 -675395295.67 7.5496733189e-05 5.1002567488e-05
          -675395295.67 -7.4274266808e-05 -5.5484473705e-05 -675395295.67 1.9544240786e-05 -1.9633516786e-05
          1.7277896404e-05 -3.1098723412e-05 3.1132251024e-05 8.6084008217e-05 6.1094760895e-05 3.4996606701e-05
          -6.1646103859e-05 -3.5075485357e-05 -3.6582350731e-05 1.7315149307e-05 -0.00012381859415 0.00012387818424
          675395295.67 5.0932168961e-05 -0.00011874735355 675395295.67 0.00012939423323 0.00010484457016
          675395295.67 -8.1598758698e-05 -0.00014935433865 675395295.67 -7.8789889812e-05 5.4270029068e-05
        </DataArray>
        <DataArray type="Int32" Name="ID" format="ascii" RangeMin="0" RangeMax="11">
          0 1 2 3 4 5
          6 7 8 9 10 11
        </DataArray>
        <DataArray type="Int32" Name="Proc_Num" format="ascii" RangeMin="0" RangeMax="0">
          0 0 0 0 0 0
          0 0 0 0 0 0
        </DataArray>
        <DataArray type="Float64" Name="Velocity" NumberOfComponents="3" format="ascii" RangeMin="0" RangeMax="0">
          0 0 0 0 0 0
          0 0 0 0 0 0
          0 0 0 0 0 0
          0 0 0 0 0 0
          0 0 0 0 0 0
          0 0 0 0 0 0
        </DataArray>
        <DataArray type="Float64" Name="Weighted_Volume" format="ascii" RangeMin="12" RangeMax="20">
          12 12 12 12 20 20
          20 20 12 12 12 12
        </DataArray>
      </PointData>
      <CellData>
      </CellData>
      <Points>
        <DataArray type="Float64" Name="Points" NumberOfComponents="3" format="ascii" RangeMin="0.70710678119" RangeMax="1.2247448714">
          -1 -0.5 0.5 -1 -0.5 -0.5
          -1 0.5 0.5 -1 0.5 -0.5
          0 -0.5 0.5 0 -0.5 -0.5
          0 0.5 0.5 0 0.5 -0.5
          1 -0.5 0.5 1 -0.5 -0.5
          1 0.5 0.5 1 0.5 -0.5
        </DataArray>
      </Points>
      <Cells>
        <DataArray type="Int64" Name="connectivity" format="ascii" RangeMin="0" RangeMax="11">
          0 1 2 3 4 5
          6 7 8 9 10 11
        </DataArray>
        <DataArray type="Int64" Name="offsets" format="ascii" RangeMin="1" RangeMax="12">
          1 2 3 4 5 6
          7 8 9 10 11 12
        </DataArray>
        <DataArray type="UInt8" Name="types" format="ascii" RangeMin="1" RangeMax="1">
          1 1 1 1 1 1
          1 1 1 1 1 1
        </DataArray>
      </Cells>
    </Piece>
  </UnstructuredGrid>
</VTKFile>
