<?xml version="1.0"?>
<VTKFile type="UnstructuredGrid" version="0.1" byte_order="LittleEndian" compressor="vtkZLibDataCompressor">
  <UnstructuredGrid>
    <Piece NumberOfPoints="12" NumberOfCells="12">
      <PointData>
        <DataArray type="Float64" Name="Dilatation" format="ascii" RangeMin="-0.018673259798" RangeMax="-0.016638752786">
          -0.018673259798 -0.018673259798 -0.018673259798 -0.018673259798 -0.016638752786 -0.016638752786
          -0.016638752786 -0.016638752786 -0.018673259798 -0.018673259798 -0.018673259798 -0.018673259798
        </DataArray>
        <DataArray type="Float64" Name="Displacement" NumberOfComponents="3" format="ascii" RangeMin="0" RangeMax="0.080501878932">
          0 0 0.0063463576806 0 0 0
          0 0.0063463576806 0.0063463576806 0 0.0063463576806 0
          -0.04 -0.0079808113163 0.014327168997 -0.04 -0.0079808113163 -0.0079808113163
          -0.04 0.014327168997 0.014327168997 -0.04 0.014327168997 -0.0079808113163
          -0.08 -5.7845036188e-17 0.0063463576806 -0.08 -7.5157791264e-17 -6.927955821e-17
          -0.08 0.0063463576806 0.0063463576806 -0.08 0.0063463576806 1.5681639103e-16
        </DataArray>
        <DataArray type="Float64" Name="Force_Density" NumberOfComponents="3" format="ascii" RangeMin="2.3294111552e-05" RangeMax="10523098473">
          -10523098473 -5.0038099289e-05 4.9084424973e-05 -10523098473 -2.9683113098e-05 -4.7385692596e-06
          -10523098473 6.1392784119e-06 2.7656555176e-05 -10523098473 2.94521451e-05 -5.0812959671e-06
          -4.2259693146e-05 -3.4034252167e-05 1.2338161469e-05 2.2888183594e-05 -3.9339065552e-05 -1.6011297703e-05
          -1.6689300537e-06 1.5657395124e-05 1.7166137695e-05 -1.4305114746e-05 8.5435807705e-05 -3.6995857954e-05
          10523098473 -6.0796737671e-06 5.1259994507e-06 10523098473 -5.4955482483e-05 -4.3424796852e-06
          10523098473 2.8491020203e-05 4.768371582e-06 10523098473 4.9471855164e-05 -4.9352645874e-05
        </DataArray>
        <DataArray type="Int32" Name="ID" format="ascii" RangeMin="0" RangeMax="11">
          0 1 2 3 4 5
          6 7 8 9 10 11
        </DataArray>
        <DataArray type="Int32" Name="Proc_Num" format="ascii" RangeMin="0" RangeMax="0">
          0 0 0 0 0 0
          0 0 0 0 0 0
        </DataArray>
        <DataArray type="Float64" Name="Velocity" NumberOfComponents="3" format="ascii" RangeMin="0" RangeMax="0">
          0 0 0 0 0 0
          0 0 0 0 0 0
          0 0 0 0 0 0
          0 0 0 0 0 0
          0 0 0 0 0 0
          0 0 0 0 0 0
        </DataArray>
        <DataArray type="Float64" Name="Weighted_Volume" format="ascii" RangeMin="12" RangeMax="20">
          12 12 12 12 20 20
          20 20 12 12 12 12
        </DataArray>
      </PointData>
      <CellData>
      </CellData>
      <Points>
        <DataArray type="Float64" Name="Points" NumberOfComponents="3" format="ascii" RangeMin="0.70710678119" RangeMax="1.2247448714">
          -1 -0.5 0.5 -1 -0.5 -0.5
          -1 0.5 0.5 -1 0.5 -0.5
          0 -0.5 0.5 0 -0.5 -0.5
          0 0.5 0.5 0 0.5 -0.5
          1 -0.5 0.5 1 -0.5 -0.5
          1 0.5 0.5 1 0.5 -0.5
        </DataArray>
      </Points>
      <Cells>
        <DataArray type="Int64" Name="connectivity" format="ascii" RangeMin="0" RangeMax="11">
          0 1 2 3 4 5
          6 7 8 9 10 11
        </DataArray>
        <DataArray type="Int64" Name="offsets" format="ascii" RangeMin="1" RangeMax="12">
          1 2 3 4 5 6
          7 8 9 10 11 12
        </DataArray>
        <DataArray type="UInt8" Name="types" format="ascii" RangeMin="1" RangeMax="1">
          1 1 1 1 1 1
          1 1 1 1 1 1
        </DataArray>
      </Cells>
    </Piece>
  </UnstructuredGrid>
</VTKFile>
