<?xml version="1.0"?>
<VTKFile type="UnstructuredGrid" version="0.1" byte_order="LittleEndian" compressor="vtkZLibDataCompressor">
  <UnstructuredGrid>
    <Piece NumberOfPoints="12" NumberOfCells="12">
      <PointData>
        <DataArray type="Float64" Name="Dilatation" format="ascii" RangeMin="-0.010583521371" RangeMax="-0.0095731532627">
          -0.010583521371 -0.010583521371 -0.010583521371 -0.010583521371 -0.0095731532627 -0.0095731532627
          -0.0095731532627 -0.0095731532627 -0.010583521371 -0.010583521371 -0.010583521371 -0.010583521371
        </DataArray>
        <DataArray type="Float64" Name="Displacement" NumberOfComponents="3" format="ascii" RangeMin="0" RangeMax="0.045293797334">
          0 0 0.0036419827646 0 0 0
          0 0.0036419827646 0.0036419827646 0 0.0036419827646 0
          -0.0225 -0.004426885034 0.0080688677986 -0.0225 -0.004426885034 -0.004426885034
          -0.0225 0.0080688677986 0.0080688677986 -0.0225 0.0080688677986 -0.004426885034
          -0.045 -1.4792208749e-17 0.0036419827646 -0.045 -8.1431061606e-17 2.3972831344e-16
          -0.045 0.0036419827646 0.0036419827646 -0.045 0.0036419827646 6.1582236272e-17
        </DataArray>
        <DataArray type="Float64" Name="Force_Density" NumberOfComponents="3" format="ascii" RangeMin="4.8810047494e-06" RangeMax="5993621468.4">
          -5993621468.4 -9.8049640656e-06 -3.3244490623e-05 -5993621468.4 -3.0040740967e-05 3.6955112591e-05
          -5993621468.4 1.0332558304e-05 -3.2544136047e-05 -5993621468.4 1.1045485735e-05 3.3031217754e-05
          -7.3313713074e-06 3.3676624298e-06 -2.8669834137e-05 8.3446502686e-07 2.5033950806e-06 4.1062012315e-06
          -3.4332275391e-05 3.6220531911e-05 6.115436554e-05 4.1007995605e-05 -5.3476542234e-06 3.3061951399e-06
          5993621468.4 3.3318996429e-05 1.0251998901e-05 5993621468.4 1.3291835785e-05 -3.0159265942e-05
          5993621468.4 -3.2443882553e-05 -5.6982040405e-05 5993621468.4 -3.2087623314e-05 3.3140182495e-05
        </DataArray>
        <DataArray type="Int32" Name="ID" format="ascii" RangeMin="0" RangeMax="11">
          0 1 2 3 4 5
          6 7 8 9 10 11
        </DataArray>
        <DataArray type="Int32" Name="Proc_Num" format="ascii" RangeMin="0" RangeMax="0">
          0 0 0 0 0 0
          0 0 0 0 0 0
        </DataArray>
        <DataArray type="Float64" Name="Velocity" NumberOfComponents="3" format="ascii" RangeMin="0" RangeMax="0">
          0 0 0 0 0 0
          0 0 0 0 0 0
          0 0 0 0 0 0
          0 0 0 0 0 0
          0 0 0 0 0 0
          0 0 0 0 0 0
        </DataArray>
        <DataArray type="Float64" Name="Weighted_Volume" format="ascii" RangeMin="12" RangeMax="20">
          12 12 12 12 20 20
          20 20 12 12 12 12
        </DataArray>
      </PointData>
      <CellData>
      </CellData>
      <Points>
        <DataArray type="Float64" Name="Points" NumberOfComponents="3" format="ascii" RangeMin="0.70710678119" RangeMax="1.2247448714">
          -1 -0.5 0.5 -1 -0.5 -0.5
          -1 0.5 0.5 -1 0.5 -0.5
          0 -0.5 0.5 0 -0.5 -0.5
          0 0.5 0.5 0 0.5 -0.5
          1 -0.5 0.5 1 -0.5 -0.5
          1 0.5 0.5 1 0.5 -0.5
        </DataArray>
      </Points>
      <Cells>
        <DataArray type="Int64" Name="connectivity" format="ascii" RangeMin="0" RangeMax="11">
          0 1 2 3 4 5
          6 7 8 9 10 11
        </DataArray>
        <DataArray type="Int64" Name="offsets" format="ascii" RangeMin="1" RangeMax="12">
          1 2 3 4 5 6
          7 8 9 10 11 12
        </DataArray>
        <DataArray type="UInt8" Name="types" format="ascii" RangeMin="1" RangeMax="1">
          1 1 1 1 1 1
          1 1 1 1 1 1
        </DataArray>
      </Cells>
    </Piece>
  </UnstructuredGrid>
</VTKFile>
