<?xml version="1.0"?>
<VTKFile type="UnstructuredGrid" version="0.1" byte_order="LittleEndian" compressor="vtkZLibDataCompressor">
  <UnstructuredGrid>
    <Piece NumberOfPoints="12" NumberOfCells="12">
      <PointData>
        <DataArray type="Float64" Name="Dilatation" format="ascii" RangeMin="-0.0011864963615" RangeMax="-0.0010905779356">
          -0.0011864963615 -0.0011864963615 -0.0011864963615 -0.0011864963615 -0.0010905779356 -0.0010905779356
          -0.0010905779356 -0.0010905779356 -0.0011864963615 -0.0011864963615 -0.0011864963615 -0.0011864963615
        </DataArray>
        <DataArray type="Float64" Name="Displacement" NumberOfComponents="3" format="ascii" RangeMin="0" RangeMax="0.0050340506298">
          0 0 0.0004133193339 0 0 0
          0 0.0004133193339 0.0004133193339 0 0.0004133193339 0
          -0.0025 -0.00048434108217 0.00089766041608 -0.0025 -0.00048434108217 -0.00048434108217
          -0.0025 0.00089766041608 0.00089766041608 -0.0025 0.00089766041608 -0.00048434108217
          -0.005 9.5634565243e-17 0.0004133193339 -0.005 2.4544219732e-16 -5.9162477775e-18
          -0.005 0.0004133193339 0.0004133193339 -0.005 0.0004133193339 -9.9797573857e-17
        </DataArray>
        <DataArray type="Float64" Name="Force_Density" NumberOfComponents="3" format="ascii" RangeMin="5.4082110611e-05" RangeMax="675395295.67">
          -675395295.67 -1.0160729289e-05 1.0196119547e-05 -675395295.67 -7.8156590462e-06 3.5472225136e-05
          -675395295.67 -5.5509037338e-05 -9.8749995232e-05 -675395295.67 7.7958582551e-05 3.3037547837e-05
          -1.7315149307e-05 0.00014209374785 -0.00014220550656 6.1705708504e-05 3.6343932152e-05 1.1982978322e-05
          4.1767954826e-05 2.3576474632e-05 2.4989247322e-05 -8.1688165665e-05 -7.7596167102e-05 7.6303069363e-05
          675395295.67 -6.2793493271e-05 8.7402760983e-05 675395295.67 -6.2830746174e-05 -3.845691866e-05
          675395295.67 -1.6078315919e-06 -8.8170170784e-05 675395295.67 -1.6286987689e-06 8.81254673e-05
        </DataArray>
        <DataArray type="Int32" Name="ID" format="ascii" RangeMin="0" RangeMax="11">
          0 1 2 3 4 5
          6 7 8 9 10 11
        </DataArray>
        <DataArray type="Int32" Name="Proc_Num" format="ascii" RangeMin="0" RangeMax="0">
          0 0 0 0 0 0
          0 0 0 0 0 0
        </DataArray>
        <DataArray type="Float64" Name="Velocity" NumberOfComponents="3" format="ascii" RangeMin="0" RangeMax="2013.6202519">
          0 0 165.32773356 0 0 0
          0 165.32773356 165.32773356 0 165.32773356 0
          -1000 -193.73643287 359.06416643 -1000 -193.73643287 -193.73643287
          -1000 359.06416643 359.06416643 -1000 359.06416643 -193.73643287
          -2000 3.8253826097e-11 165.32773356 -2000 9.8176878929e-11 -2.366499111e-12
          -2000 165.32773356 165.32773356 -2000 165.32773356 -3.9919029543e-11
        </DataArray>
        <DataArray type="Float64" Name="Weighted_Volume" format="ascii" RangeMin="12" RangeMax="20">
          12 12 12 12 20 20
          20 20 12 12 12 12
        </DataArray>
      </PointData>
      <CellData>
      </CellData>
      <Points>
        <DataArray type="Float64" Name="Points" NumberOfComponents="3" format="ascii" RangeMin="0.70710678119" RangeMax="1.2247448714">
          -1 -0.5 0.5 -1 -0.5 -0.5
          -1 0.5 0.5 -1 0.5 -0.5
          0 -0.5 0.5 0 -0.5 -0.5
          0 0.5 0.5 0 0.5 -0.5
          1 -0.5 0.5 1 -0.5 -0.5
          1 0.5 0.5 1 0.5 -0.5
        </DataArray>
      </Points>
      <Cells>
        <DataArray type="Int64" Name="connectivity" format="ascii" RangeMin="0" RangeMax="11">
          0 1 2 3 4 5
          6 7 8 9 10 11
        </DataArray>
        <DataArray type="Int64" Name="offsets" format="ascii" RangeMin="1" RangeMax="12">
          1 2 3 4 5 6
          7 8 9 10 11 12
        </DataArray>
        <DataArray type="UInt8" Name="types" format="ascii" RangeMin="1" RangeMax="1">
          1 1 1 1 1 1
          1 1 1 1 1 1
        </DataArray>
      </Cells>
    </Piece>
  </UnstructuredGrid>
</VTKFile>
