<?xml version="1.0"?>
<VTKFile type="UnstructuredGrid" version="0.1" byte_order="LittleEndian" compressor="vtkZLibDataCompressor">
  <UnstructuredGrid>
    <Piece NumberOfPoints="12" NumberOfCells="12">
      <PointData>
        <DataArray type="Float64" Name="Dilatation" format="ascii" RangeMin="-0.017524865582" RangeMax="-0.015649969378">
          -0.017524865582 -0.017524865582 -0.017524865582 -0.017524865582 -0.015649969378 -0.015649969378
          -0.015649969378 -0.015649969378 -0.017524865582 -0.017524865582 -0.017524865582 -0.017524865582
        </DataArray>
        <DataArray type="Float64" Name="Displacement" NumberOfComponents="3" format="ascii" RangeMin="0" RangeMax="0.075473286765">
          0 0 0.005967286449 0 0 0
          0 0.005967286449 0.005967286449 0 0.005967286449 0
          -0.0375 -0.0074668676577 0.013434154107 -0.0375 -0.0074668676577 -0.0074668676577
          -0.0375 0.013434154107 0.013434154107 -0.0375 0.013434154107 -0.0074668676577
          -0.075 -1.5961647992e-17 0.005967286449 -0.075 4.0239012082e-17 5.8167491643e-17
          -0.075 0.005967286449 0.005967286449 -0.075 0.005967286449 5.3078628474e-17
        </DataArray>
        <DataArray type="Float64" Name="Force_Density" NumberOfComponents="3" format="ascii" RangeMin="2.5249937399e-05" RangeMax="9883121621.5">
          -9883121621.5 -3.8474798203e-05 3.8683414459e-05 -9883121621.5 -5.8770179749e-05 -5.806516856e-05
          -9883121621.5 3.8574449718e-05 3.8623809814e-05 -9883121621.5 5.8747828007e-05 -5.853921175e-05
          -2.7418136597e-06 -2.509355545e-05 -5.9604644775e-07 -1.335144043e-05 9.1314315796e-05 4.0603801608e-05
          -2.5987625122e-05 2.4138018489e-05 2.4080276489e-05 -3.719329834e-05 -6.7673623562e-05 4.0244311094e-05
          9883121621.5 1.5258789062e-05 2.7775764465e-05 9883121621.5 -3.9339065552e-06 -4.8366866173e-05
          9883121621.5 -1.3819065339e-05 2.8848648071e-05 9883121621.5 -1.9376115677e-05 -7.2956085205e-05
        </DataArray>
        <DataArray type="Int32" Name="ID" format="ascii" RangeMin="0" RangeMax="11">
          0 1 2 3 4 5
          6 7 8 9 10 11
        </DataArray>
        <DataArray type="Int32" Name="Proc_Num" format="ascii" RangeMin="0" RangeMax="0">
          0 0 0 0 0 0
          0 0 0 0 0 0
        </DataArray>
        <DataArray type="Float64" Name="Velocity" NumberOfComponents="3" format="ascii" RangeMin="0" RangeMax="2011.6120905">
          0 0 152.61586213 0 0 0
          0 152.61586213 152.61586213 0 152.61586213 0
          -1000 -204.73098309 357.34684522 -1000 -204.73098309 -204.73098309
          -1000 357.34684522 357.34684522 -1000 357.34684522 -204.73098309
          -2000 -4.1784878295e-11 152.61586213 -2000 -7.6232818512e-11 5.213879656e-11
          -2000 152.61586213 152.61586213 -2000 152.61586213 -7.7672581008e-11
        </DataArray>
        <DataArray type="Float64" Name="Weighted_Volume" format="ascii" RangeMin="12" RangeMax="20">
          12 12 12 12 20 20
          20 20 12 12 12 12
        </DataArray>
      </PointData>
      <CellData>
      </CellData>
      <Points>
        <DataArray type="Float64" Name="Points" NumberOfComponents="3" format="ascii" RangeMin="0.70710678119" RangeMax="1.2247448714">
          -1 -0.5 0.5 -1 -0.5 -0.5
          -1 0.5 0.5 -1 0.5 -0.5
          0 -0.5 0.5 0 -0.5 -0.5
          0 0.5 0.5 0 0.5 -0.5
          1 -0.5 0.5 1 -0.5 -0.5
          1 0.5 0.5 1 0.5 -0.5
        </DataArray>
      </Points>
      <Cells>
        <DataArray type="Int64" Name="connectivity" format="ascii" RangeMin="0" RangeMax="11">
          0 1 2 3 4 5
          6 7 8 9 10 11
        </DataArray>
        <DataArray type="Int64" Name="offsets" format="ascii" RangeMin="1" RangeMax="12">
          1 2 3 4 5 6
          7 8 9 10 11 12
        </DataArray>
        <DataArray type="UInt8" Name="types" format="ascii" RangeMin="1" RangeMax="1">
          1 1 1 1 1 1
          1 1 1 1 1 1
        </DataArray>
      </Cells>
    </Piece>
  </UnstructuredGrid>
</VTKFile>
