<?xml version="1.0"?>
<VTKFile type="UnstructuredGrid" version="0.1" byte_order="LittleEndian" compressor="vtkZLibDataCompressor">
  <UnstructuredGrid>
    <Piece NumberOfPoints="12" NumberOfCells="12">
      <PointData>
        <DataArray type="Float64" Name="Dilatation" format="ascii" RangeMin="-0.0047299580856" RangeMax="-0.004322088178">
          -0.0047299580856 -0.0047299580856 -0.0047299580856 -0.0047299580856 -0.004322088178 -0.004322088178
          -0.004322088178 -0.004322088178 -0.0047299580856 -0.0047299580856 -0.0047299580856 -0.0047299580856
        </DataArray>
        <DataArray type="Float64" Name="Displacement" NumberOfComponents="3" format="ascii" RangeMin="0" RangeMax="0.020134119111">
          0 0 0.0016405414287 0 0 0
          0 0.0016405414287 0.0016405414287 0 0.0016405414287 0
          -0.01 -0.0019484886516 0.0035890300803 -0.01 -0.0019484886516 -0.0019484886516
          -0.01 0.0035890300803 0.0035890300803 -0.01 0.0035890300803 -0.0019484886516
          -0.02 -1.4145833373e-16 0.0016405414287 -0.02 9.7312184546e-17 1.7429832584e-17
          -0.02 0.0016405414287 0.0016405414287 -0.02 0.0016405414287 2.2674236429e-16
        </DataArray>
        <DataArray type="Float64" Name="Force_Density" NumberOfComponents="3" format="ascii" RangeMin="4.0447294021e-05" RangeMax="2687427942.7">
          -2687427942.7 -5.903840065e-05 5.9135258198e-05 -2687427942.7 -3.8951635361e-05 -3.8958562072e-05
          -2687427942.7 3.8881902583e-05 6.3508749008e-05 -2687427942.7 3.888970241e-05 -1.4380784705e-05
          -3.5762786865e-07 -4.979968071e-05 4.9486756325e-05 2.4437904358e-05 -6.9737434387e-06 -3.1466479413e-05
          -2.4199485779e-05 3.1637726352e-05 -1.9133090973e-05 0.0001232624054 5.0087459385e-05 -2.4357810616e-05
          2687427942.7 4.2289495468e-05 -4.2259693146e-05 2687427942.7 4.3511390686e-06 -3.8856572233e-05
          2687427942.7 3.8908999197e-05 1.4245510101e-05 2687427942.7 -9.0026399013e-05 2.259016037e-05
        </DataArray>
        <DataArray type="Int32" Name="ID" format="ascii" RangeMin="0" RangeMax="11">
          0 1 2 3 4 5
          6 7 8 9 10 11
        </DataArray>
        <DataArray type="Int32" Name="Proc_Num" format="ascii" RangeMin="0" RangeMax="0">
          0 0 0 0 0 0
          0 0 0 0 0 0
        </DataArray>
        <DataArray type="Float64" Name="Velocity" NumberOfComponents="3" format="ascii" RangeMin="0" RangeMax="0">
          0 0 0 0 0 0
          0 0 0 0 0 0
          0 0 0 0 0 0
          0 0 0 0 0 0
          0 0 0 0 0 0
          0 0 0 0 0 0
        </DataArray>
        <DataArray type="Float64" Name="Weighted_Volume" format="ascii" RangeMin="12" RangeMax="20">
          12 12 12 12 20 20
          20 20 12 12 12 12
        </DataArray>
      </PointData>
      <CellData>
      </CellData>
      <Points>
        <DataArray type="Float64" Name="Points" NumberOfComponents="3" format="ascii" RangeMin="0.70710678119" RangeMax="1.2247448714">
          -1 -0.5 0.5 -1 -0.5 -0.5
          -1 0.5 0.5 -1 0.5 -0.5
          0 -0.5 0.5 0 -0.5 -0.5
          0 0.5 0.5 0 0.5 -0.5
          1 -0.5 0.5 1 -0.5 -0.5
          1 0.5 0.5 1 0.5 -0.5
        </DataArray>
      </Points>
      <Cells>
        <DataArray type="Int64" Name="connectivity" format="ascii" RangeMin="0" RangeMax="11">
          0 1 2 3 4 5
          6 7 8 9 10 11
        </DataArray>
        <DataArray type="Int64" Name="offsets" format="ascii" RangeMin="1" RangeMax="12">
          1 2 3 4 5 6
          7 8 9 10 11 12
        </DataArray>
        <DataArray type="UInt8" Name="types" format="ascii" RangeMin="1" RangeMax="1">
          1 1 1 1 1 1
          1 1 1 1 1 1
        </DataArray>
      </Cells>
    </Piece>
  </UnstructuredGrid>
</VTKFile>
