<?xml version="1.0"?>
<VTKFile type="UnstructuredGrid" version="0.1" byte_order="LittleEndian" compressor="vtkZLibDataCompressor">
  <UnstructuredGrid>
    <Piece NumberOfPoints="12" NumberOfCells="12">
      <PointData>
        <DataArray type="Float64" Name="Dilatation" format="ascii" RangeMin="-0.019819284748" RangeMax="-0.017620628583">
          -0.019819284748 -0.019819284748 -0.019819284748 -0.019819284748 -0.017620628583 -0.017620628583
          -0.017620628583 -0.017620628583 -0.019819284748 -0.019819284748 -0.019819284748 -0.019819284748
        </DataArray>
        <DataArray type="Float64" Name="Displacement" NumberOfComponents="3" format="ascii" RangeMin="0" RangeMax="0.085530086169">
          0 0 0.0067229324006 0 0 0
          0 0.0067229324006 0.0067229324006 0 0.0067229324006 0
          -0.0425 -0.0084968937951 0.015219826196 -0.0425 -0.0084968937951 -0.0084968937951
          -0.0425 0.015219826196 0.015219826196 -0.0425 0.015219826196 -0.0084968937951
          -0.085 3.6011981694e-16 0.0067229324006 -0.085 1.2021246055e-16 1.8243100767e-16
          -0.085 0.0067229324006 0.0067229324006 -0.085 0.0067229324006 2.4344523626e-17
        </DataArray>
        <DataArray type="Float64" Name="Force_Density" NumberOfComponents="3" format="ascii" RangeMin="8.7727144008e-05" RangeMax="11160709701">
          -11160709701 5.9723854065e-05 3.3408403397e-05 -11160709701 3.5047531128e-05 -9.0477988124e-06
          -11160709701 -1.0103918612e-05 -1.6450881958e-05 -11160709701 -5.8460980654e-05 -7.9832971096e-06
          6.6220760345e-05 3.9935112e-05 -4.1425228119e-05 6.3896179199e-05 7.152557373e-05 2.2988766432e-05
          -0.00012922286987 1.7285346985e-05 4.1484832764e-05 -6.5326690674e-05 -1.9408762455e-05 6.3948333263e-05
          11160709701 -3.2067298889e-05 -1.585483551e-05 11160709701 -2.9802322388e-05 -4.8352049838e-05
          11160709701 -1.5403364203e-05 1.0013580322e-05 11160709701 -5.7744217862e-05 -3.2305717468e-05
        </DataArray>
        <DataArray type="Int32" Name="ID" format="ascii" RangeMin="0" RangeMax="11">
          0 1 2 3 4 5
          6 7 8 9 10 11
        </DataArray>
        <DataArray type="Int32" Name="Proc_Num" format="ascii" RangeMin="0" RangeMax="0">
          0 0 0 0 0 0
          0 0 0 0 0 0
        </DataArray>
        <DataArray type="Float64" Name="Velocity" NumberOfComponents="3" format="ascii" RangeMin="0" RangeMax="0">
          0 0 0 0 0 0
          0 0 0 0 0 0
          0 0 0 0 0 0
          0 0 0 0 0 0
          0 0 0 0 0 0
          0 0 0 0 0 0
        </DataArray>
        <DataArray type="Float64" Name="Weighted_Volume" format="ascii" RangeMin="12" RangeMax="20">
          12 12 12 12 20 20
          20 20 12 12 12 12
        </DataArray>
      </PointData>
      <CellData>
      </CellData>
      <Points>
        <DataArray type="Float64" Name="Points" NumberOfComponents="3" format="ascii" RangeMin="0.70710678119" RangeMax="1.2247448714">
          -1 -0.5 0.5 -1 -0.5 -0.5
          -1 0.5 0.5 -1 0.5 -0.5
          0 -0.5 0.5 0 -0.5 -0.5
          0 0.5 0.5 0 0.5 -0.5
          1 -0.5 0.5 1 -0.5 -0.5
          1 0.5 0.5 1 0.5 -0.5
        </DataArray>
      </Points>
      <Cells>
        <DataArray type="Int64" Name="connectivity" format="ascii" RangeMin="0" RangeMax="11">
          0 1 2 3 4 5
          6 7 8 9 10 11
        </DataArray>
        <DataArray type="Int64" Name="offsets" format="ascii" RangeMin="1" RangeMax="12">
          1 2 3 4 5 6
          7 8 9 10 11 12
        </DataArray>
        <DataArray type="UInt8" Name="types" format="ascii" RangeMin="1" RangeMax="1">
          1 1 1 1 1 1
          1 1 1 1 1 1
        </DataArray>
      </Cells>
    </Piece>
  </UnstructuredGrid>
</VTKFile>
