<?xml version="1.0"?>
<VTKFile type="UnstructuredGrid" version="0.1" byte_order="LittleEndian" compressor="vtkZLibDataCompressor">
  <UnstructuredGrid>
    <Piece NumberOfPoints="12" NumberOfCells="12">
      <PointData>
        <DataArray type="Float64" Name="Dilatation" format="ascii" RangeMin="-0.0023703081217" RangeMax="-0.0021744593208">
          -0.0023703081217 -0.0023703081217 -0.0023703081217 -0.0023703081217 -0.0021744593208 -0.0021744593208
          -0.0021744593208 -0.0021744593208 -0.0023703081217 -0.0023703081217 -0.0023703081217 -0.0023703081217
        </DataArray>
        <DataArray type="Float64" Name="Displacement" NumberOfComponents="3" format="ascii" RangeMin="0" RangeMax="0.010067755779">
          0 0 0.00082453211708 0 0 0
          0 0.00082453211708 0.00082453211708 0 0.00082453211708 0
          -0.005 -0.00097052474622 0.0017950568633 -0.005 -0.00097052474622 -0.00097052474622
          -0.005 0.0017950568633 0.0017950568633 -0.005 0.0017950568633 -0.00097052474622
          -0.01 7.9114329661e-17 0.00082453211708 -0.01 2.3609751154e-16 -8.331474143e-17
          -0.01 0.00082453211708 0.00082453211708 -0.01 0.00082453211708 6.5654575902e-17
        </DataArray>
        <DataArray type="Float64" Name="Force_Density" NumberOfComponents="3" format="ascii" RangeMin="3.7404409013e-05" RangeMax="1348431872.6">
          -1348431872.6 -4.9389898777e-05 4.9408525229e-05 -1348431872.6 -2.3394823074e-05 1.3836397557e-06
          -1348431872.6 1.852074638e-05 1.1920928955e-07 -1348431872.6 5.3575669881e-05 1.3950222638e-05
          -0.00010339915752 5.6132674217e-05 -3.0182301998e-05 8.9406967163e-08 -1.4334917068e-05 3.4548400436e-05
          -0.00010338425636 -5.5759795941e-05 -4.2915344238e-06 5.9306621552e-05 -9.9671888165e-06 -4.0179118514e-05
          1348431872.6 -4.3168663979e-05 -2.4601817131e-05 1348431872.6 -1.859664917e-05 -6.1128897998e-08
          1348431872.6 4.3201401017e-05 4.3213367462e-05 1348431872.6 4.3308757652e-05 -4.3317675591e-05
        </DataArray>
        <DataArray type="Int32" Name="ID" format="ascii" RangeMin="0" RangeMax="11">
          0 1 2 3 4 5
          6 7 8 9 10 11
        </DataArray>
        <DataArray type="Int32" Name="Proc_Num" format="ascii" RangeMin="0" RangeMax="0">
          0 0 0 0 0 0
          0 0 0 0 0 0
        </DataArray>
        <DataArray type="Float64" Name="Velocity" NumberOfComponents="3" format="ascii" RangeMin="0" RangeMax="2013.4822336">
          0 0 164.48511327 0 0 0
          0 164.48511327 164.48511327 0 164.48511327 0
          -1000 -194.47346562 358.95857889 -1000 -194.47346562 -194.47346562
          -1000 358.95857889 358.95857889 -1000 358.95857889 -194.47346562
          -2000 -6.6080942326e-12 164.48511327 -2000 -3.7378743141e-12 -3.0959397461e-11
          -2000 164.48511327 164.48511327 -2000 164.48511327 6.6180859903e-11
        </DataArray>
        <DataArray type="Float64" Name="Weighted_Volume" format="ascii" RangeMin="12" RangeMax="20">
          12 12 12 12 20 20
          20 20 12 12 12 12
        </DataArray>
      </PointData>
      <CellData>
      </CellData>
      <Points>
        <DataArray type="Float64" Name="Points" NumberOfComponents="3" format="ascii" RangeMin="0.70710678119" RangeMax="1.2247448714">
          -1 -0.5 0.5 -1 -0.5 -0.5
          -1 0.5 0.5 -1 0.5 -0.5
          0 -0.5 0.5 0 -0.5 -0.5
          0 0.5 0.5 0 0.5 -0.5
          1 -0.5 0.5 1 -0.5 -0.5
          1 0.5 0.5 1 0.5 -0.5
        </DataArray>
      </Points>
      <Cells>
        <DataArray type="Int64" Name="connectivity" format="ascii" RangeMin="0" RangeMax="11">
          0 1 2 3 4 5
          6 7 8 9 10 11
        </DataArray>
        <DataArray type="Int64" Name="offsets" format="ascii" RangeMin="1" RangeMax="12">
          1 2 3 4 5 6
          7 8 9 10 11 12
        </DataArray>
        <DataArray type="UInt8" Name="types" format="ascii" RangeMin="1" RangeMax="1">
          1 1 1 1 1 1
          1 1 1 1 1 1
        </DataArray>
      </Cells>
    </Piece>
  </UnstructuredGrid>
</VTKFile>
