<?xml version="1.0"?>
<VTKFile type="UnstructuredGrid" version="0.1" byte_order="LittleEndian" compressor="vtkZLibDataCompressor">
  <UnstructuredGrid>
    <Piece NumberOfPoints="12" NumberOfCells="12">
      <PointData>
        <DataArray type="Float64" Name="Dilatation" format="ascii" RangeMin="-0.0070791117683" RangeMax="-0.0064427940314">
          -0.0070791117683 -0.0070791117683 -0.0070791117683 -0.0070791117683 -0.0064427940314 -0.0064427940314
          -0.0064427940314 -0.0064427940314 -0.0070791117683 -0.0070791117683 -0.0070791117683 -0.0070791117683
        </DataArray>
        <DataArray type="Float64" Name="Displacement" NumberOfComponents="3" format="ascii" RangeMin="0" RangeMax="0.030199068944">
          0 0 0.002447832213 0 0 0
          0 0.002447832213 0.002447832213 0 0.002447832213 0
          -0.015 -0.0029340328486 0.0053818650616 -0.015 -0.0029340328486 -0.0029340328486
          -0.015 0.0053818650616 0.0053818650616 -0.015 0.0053818650616 -0.0029340328486
          -0.03 8.9077647347e-17 0.002447832213 -0.03 9.9432171633e-17 -5.9871268712e-17
          -0.03 0.002447832213 0.002447832213 -0.03 0.002447832213 -6.832638042e-17
        </DataArray>
        <DataArray type="Float64" Name="Force_Density" NumberOfComponents="3" format="ascii" RangeMin="1.8210377379e-05" RangeMax="4016986096.3">
          -4016986096.3 -1.2964010239e-05 -3.6463141441e-05 -4016986096.3 -3.3438205719e-05 -3.2638083212e-05
          -4016986096.3 -7.0636160672e-06 -7.0929527283e-06 -4016986096.3 1.2568198144e-05 -1.2721866369e-05
          -1.1920928955e-07 -1.3515353203e-05 -1.2204051018e-05 -0.00010359287262 -1.8358230591e-05 8.1559410319e-05
          2.4497509003e-05 5.3479336202e-05 5.4597854614e-05 -2.384185791e-07 3.9814971387e-05 -3.9052218199e-05
          4016986096.3 -1.2516975403e-05 1.2338161469e-05 4016986096.3 -3.308057785e-05 -3.2481161365e-05
          4016986096.3 1.2510235328e-05 -3.0398368835e-05 4016986096.3 1.2669357052e-05 5.5015087128e-05
        </DataArray>
        <DataArray type="Int32" Name="ID" format="ascii" RangeMin="0" RangeMax="11">
          0 1 2 3 4 5
          6 7 8 9 10 11
        </DataArray>
        <DataArray type="Int32" Name="Proc_Num" format="ascii" RangeMin="0" RangeMax="0">
          0 0 0 0 0 0
          0 0 0 0 0 0
        </DataArray>
        <DataArray type="Float64" Name="Velocity" NumberOfComponents="3" format="ascii" RangeMin="0" RangeMax="2012.9215396">
          0 0 161.0172735 0 0 0
          0 161.0172735 161.0172735 0 161.0172735 0
          -1000 -197.49147045 358.50874395 -1000 -197.49147045 -197.49147045
          -1000 358.50874395 358.50874395 -1000 358.50874395 -197.49147045
          -2000 3.0490390368e-11 161.0172735 -2000 7.5210070784e-11 -4.4536855479e-12
          -2000 161.0172735 161.0172735 -2000 161.0172735 2.2175139609e-11
        </DataArray>
        <DataArray type="Float64" Name="Weighted_Volume" format="ascii" RangeMin="12" RangeMax="20">
          12 12 12 12 20 20
          20 20 12 12 12 12
        </DataArray>
      </PointData>
      <CellData>
      </CellData>
      <Points>
        <DataArray type="Float64" Name="Points" NumberOfComponents="3" format="ascii" RangeMin="0.70710678119" RangeMax="1.2247448714">
          -1 -0.5 0.5 -1 -0.5 -0.5
          -1 0.5 0.5 -1 0.5 -0.5
          0 -0.5 0.5 0 -0.5 -0.5
          0 0.5 0.5 0 0.5 -0.5
          1 -0.5 0.5 1 -0.5 -0.5
          1 0.5 0.5 1 0.5 -0.5
        </DataArray>
      </Points>
      <Cells>
        <DataArray type="Int64" Name="connectivity" format="ascii" RangeMin="0" RangeMax="11">
          0 1 2 3 4 5
          6 7 8 9 10 11
        </DataArray>
        <DataArray type="Int64" Name="offsets" format="ascii" RangeMin="1" RangeMax="12">
          1 2 3 4 5 6
          7 8 9 10 11 12
        </DataArray>
        <DataArray type="UInt8" Name="types" format="ascii" RangeMin="1" RangeMax="1">
          1 1 1 1 1 1
          1 1 1 1 1 1
        </DataArray>
      </Cells>
    </Piece>
  </UnstructuredGrid>
</VTKFile>
