<?xml version="1.0"?>
<VTKFile type="UnstructuredGrid" version="0.1" byte_order="LittleEndian" compressor="vtkZLibDataCompressor">
  <UnstructuredGrid>
    <Piece NumberOfPoints="12" NumberOfCells="12">
      <PointData>
        <DataArray type="Float64" Name="Dilatation" format="ascii" RangeMin="-0.016374080047" RangeMax="-0.014654295893">
          -0.016374080047 -0.016374080047 -0.016374080047 -0.016374080047 -0.014654295893 -0.014654295893
          -0.014654295893 -0.014654295893 -0.016374080047 -0.016374080047 -0.016374080047 -0.016374080047
        </DataArray>
        <DataArray type="Float64" Name="Displacement" NumberOfComponents="3" format="ascii" RangeMin="0" RangeMax="0.070444312293">
          0 0 0.0055857467937 0 0 0
          0 0.0055857467937 0.0055857467937 0 0.0055857467937 0
          -0.035 -0.0069550402 0.012540786994 -0.035 -0.0069550402 -0.0069550402
          -0.035 0.012540786994 0.012540786994 -0.035 0.012540786994 -0.0069550402
          -0.07 8.8500547746e-17 0.0055857467937 -0.07 2.3082105836e-16 -7.2179499756e-17
          -0.07 0.0055857467937 0.0055857467937 -0.07 0.0055857467937 2.4726008099e-16
        </DataArray>
        <DataArray type="Float64" Name="Force_Density" NumberOfComponents="3" format="ascii" RangeMin="4.6348772942e-05" RangeMax="9240779908.3">
          -9240779908.3 5.3137540817e-05 -9.5814466476e-05 -9240779908.3 5.2571296692e-05 9.5523893833e-05
          -9240779908.3 -7.782690227e-05 -9.5844268799e-05 -9240779908.3 -5.4122880101e-05 9.5456838608e-05
          -2.1755695343e-05 5.0127506256e-05 -1.7881393433e-06 8.3446502686e-07 4.6253204346e-05 -2.8554350138e-06
          -6.6757202148e-05 2.2375956178e-05 2.4557113647e-05 5.7220458984e-05 -2.184137702e-05 4.6353787184e-05
          9240779908.3 -3.19480896e-05 3.2544136047e-05 9240779908.3 -3.981590271e-05 1.6699768259e-06
          9240779908.3 -4.6014785767e-05 -4.2915344238e-06 9240779908.3 4.6968460083e-05 -9.6201896667e-05
        </DataArray>
        <DataArray type="Int32" Name="ID" format="ascii" RangeMin="0" RangeMax="11">
          0 1 2 3 4 5
          6 7 8 9 10 11
        </DataArray>
        <DataArray type="Int32" Name="Proc_Num" format="ascii" RangeMin="0" RangeMax="0">
          0 0 0 0 0 0
          0 0 0 0 0 0
        </DataArray>
        <DataArray type="Float64" Name="Velocity" NumberOfComponents="3" format="ascii" RangeMin="0" RangeMax="2011.7606923">
          0 0 153.59212708 0 0 0
          0 153.59212708 153.59212708 0 153.59212708 0
          -1000 -203.89337167 357.48549874 -1000 -203.89337167 -203.89337167
          -1000 357.48549874 357.48549874 -1000 357.48549874 -203.89337167
          -2000 -3.8360181563e-12 153.59212708 -2000 8.9833901334e-11 -6.2371882142e-11
          -2000 153.59212708 153.59212708 -2000 153.59212708 9.3356982482e-11
        </DataArray>
        <DataArray type="Float64" Name="Weighted_Volume" format="ascii" RangeMin="12" RangeMax="20">
          12 12 12 12 20 20
          20 20 12 12 12 12
        </DataArray>
      </PointData>
      <CellData>
      </CellData>
      <Points>
        <DataArray type="Float64" Name="Points" NumberOfComponents="3" format="ascii" RangeMin="0.70710678119" RangeMax="1.2247448714">
          -1 -0.5 0.5 -1 -0.5 -0.5
          -1 0.5 0.5 -1 0.5 -0.5
          0 -0.5 0.5 0 -0.5 -0.5
          0 0.5 0.5 0 0.5 -0.5
          1 -0.5 0.5 1 -0.5 -0.5
          1 0.5 0.5 1 0.5 -0.5
        </DataArray>
      </Points>
      <Cells>
        <DataArray type="Int64" Name="connectivity" format="ascii" RangeMin="0" RangeMax="11">
          0 1 2 3 4 5
          6 7 8 9 10 11
        </DataArray>
        <DataArray type="Int64" Name="offsets" format="ascii" RangeMin="1" RangeMax="12">
          1 2 3 4 5 6
          7 8 9 10 11 12
        </DataArray>
        <DataArray type="UInt8" Name="types" format="ascii" RangeMin="1" RangeMax="1">
          1 1 1 1 1 1
          1 1 1 1 1 1
        </DataArray>
      </Cells>
    </Piece>
  </UnstructuredGrid>
</VTKFile>
