<?xml version="1.0"?>
<VTKFile type="UnstructuredGrid" version="0.1" byte_order="LittleEndian" compressor="vtkZLibDataCompressor">
  <UnstructuredGrid>
    <Piece NumberOfPoints="525" NumberOfCells="525">
      <PointData>
        <DataArray type="Float64" Name="Damage" format="ascii" RangeMin="0" RangeMax="0">
          0 0 0 0 0 0
          0 0 0 0 0 0
          0 0 0 0 0 0
          0 0 0 0 0 0
          0 0 0 0 0 0
          0 0 0 0 0 0
          0 0 0 0 0 0
          0 0 0 0 0 0
          0 0 0 0 0 0
          0 0 0 0 0 0
          0 0 0 0 0 0
          0 0 0 0 0 0
          0 0 0 0 0 0
          0 0 0 0 0 0
          0 0 0 0 0 0
          0 0 0 0 0 0
          0 0 0 0 0 0
          0 0 0 0 0 0
          0 0 0 0 0 0
          0 0 0 0 0 0
          0 0 0 0 0 0
          0 0 0 0 0 0
          0 0 0 0 0 0
          0 0 0 0 0 0
          0 0 0 0 0 0
          0 0 0 0 0 0
          0 0 0 0 0 0
          0 0 0 0 0 0
          0 0 0 0 0 0
          0 0 0 0 0 0
          0 0 0 0 0 0
          0 0 0 0 0 0
          0 0 0 0 0 0
          0 0 0 0 0 0
          0 0 0 0 0 0
          0 0 0 0 0 0
          0 0 0 0 0 0
          0 0 0 0 0 0
          0 0 0 0 0 0
          0 0 0 0 0 0
          0 0 0 0 0 0
          0 0 0 0 0 0
          0 0 0 0 0 0
          0 0 0 0 0 0
          0 0 0 0 0 0
          0 0 0 0 0 0
          0 0 0 0 0 0
          0 0 0 0 0 0
          0 0 0 0 0 0
          0 0 0 0 0 0
          0 0 0 0 0 0
          0 0 0 0 0 0
          0 0 0 0 0 0
          0 0 0 0 0 0
          0 0 0 0 0 0
          0 0 0 0 0 0
          0 0 0 0 0 0
          0 0 0 0 0 0
          0 0 0 0 0 0
          0 0 0 0 0 0
          0 0 0 0 0 0
          0 0 0 0 0 0
          0 0 0 0 0 0
          0 0 0 0 0 0
          0 0 0 0 0 0
          0 0 0 0 0 0
          0 0 0 0 0 0
          0 0 0 0 0 0
          0 0 0 0 0 0
          0 0 0 0 0 0
          0 0 0 0 0 0
          0 0 0 0 0 0
          0 0 0 0 0 0
          0 0 0 0 0 0
          0 0 0 0 0 0
          0 0 0 0 0 0
          0 0 0 0 0 0
          0 0 0 0 0 0
          0 0 0 0 0 0
          0 0 0 0 0 0
          0 0 0 0 0 0
          0 0 0 0 0 0
          0 0 0 0 0 0
          0 0 0 0 0 0
          0 0 0 0 0 0
          0 0 0 0 0 0
          0 0 0 0 0 0
          0 0 0
        </DataArray>
        <DataArray type="Float64" Name="Dilatation" format="ascii" RangeMin="-0.010769667597" RangeMax="0.010202426423">
          0.0012640502436 -0.00013634508441 0.00080721718613 -0.00013634508441 0.0012640502436 -0.00013634508441
          -0.0017585574767 -0.0011240144911 -0.0017585574767 -0.00013634508441 0.00080721718613 -0.0011240144911
          -0.00029507914295 -0.0011240144911 0.00080721718613 -0.00013634508441 -0.0017585574767 -0.0011240144911
          -0.0017585574767 -0.00013634508441 0.0012640502436 -0.00013634508441 0.00080721718613 -0.0001363450844
          0.0012640502436 0.0036913920829 0.00069752780832 0.00063116652563 0.00069752780832 0.0036913920829
          0.00069752780832 -0.0041976233387 -0.0015023767114 -0.0041976233387 0.00069752780832 0.00063116652563
          -0.0015023767114 0.00019423794453 -0.0015023767114 0.00063116652563 0.00069752780832 -0.0041976233387
          -0.0015023767114 -0.0041976233387 0.00069752780832 0.0036913920829 0.00069752780832 0.00063116652563
          0.00069752780832 0.0036913920829 0.00037433550828 -0.00086715125405 -0.0013003994084 -0.00086715125405
          0.00037433550828 -0.00086715125405 -0.0054202647324 -0.0021948580947 -0.0054202647324 -0.00086715125405
          -0.0013003994084 -0.0021948580947 -0.00071495582013 -0.0021948580947 -0.0013003994084 -0.00086715125405
          -0.0054202647324 -0.0021948580947 -0.0054202647324 -0.00086715125405 0.00037433550828 -0.00086715125405
          -0.0013003994084 -0.00086715125405 0.00037433550828 -0.0036024189505 -0.0021653810818 -0.0039710268677
          -0.0021653810818 -0.0036024189505 -0.0021653810818 -0.0036676775757 -0.002469441421 -0.0036676775757
          -0.0021653810818 -0.0039710268677 -0.002469441421 -0.001947257554 -0.002469441421 -0.0039710268677
          -0.0021653810818 -0.0036676775757 -0.002469441421 -0.0036676775757 -0.0021653810818 -0.0036024189505
          -0.0021653810818 -0.0039710268677 -0.0021653810818 -0.0036024189505 -0.010769667597 -0.0056577951083
          -0.0061370792265 -0.0056577951083 -0.010769667597 -0.0056577951083 -0.0042481275753 -0.0041488873517
          -0.0042481275753 -0.0056577951083 -0.0061370792265 -0.0041488873517 -0.0041312368314 -0.0041488873517
          -0.0061370792265 -0.0056577951083 -0.0042481275753 -0.0041488873517 -0.0042481275753 -0.0056577951083
          -0.010769667597 -0.0056577951083 -0.0061370792265 -0.0056577951083 -0.010769667597 -0.0093366036107
          -0.0051410241035 -0.0052717656543 -0.0051410241035 -0.0093366036107 -0.0051410241035 -0.0033902336454
          -0.0044524023595 -0.0033902336454 -0.0051410241035 -0.0052717656543 -0.0044524023595 -0.0046783425514
          -0.0044524023595 -0.0052717656543 -0.0051410241035 -0.0033902336454 -0.0044524023595 -0.0033902336454
          -0.0051410241035 -0.0093366036107 -0.0051410241035 -0.0052717656543 -0.0051410241035 -0.0093366036107
          -0.008492856033 -0.0057070029495 -0.0044004498037 -0.0057070029495 -0.008492856033 -0.0057070029495
          -0.0052964171688 -0.0055996184043 -0.0052964171688 -0.0057070029495 -0.0044004498037 -0.0055996184043
          -0.0048386382411 -0.0055996184043 -0.0044004498037 -0.0057070029495 -0.0052964171688 -0.0055996184043
          -0.0052964171688 -0.0057070029495 -0.008492856033 -0.0057070029495 -0.0044004498037 -0.0057070029495
          -0.008492856033 -0.0054213877572 -0.0059677158204 -0.0044626098454 -0.0059677158204 -0.0054213877572
          -0.0059677158204 -0.0073617742837 -0.0067970413715 -0.0073617742837 -0.0059677158204 -0.0044626098454
          -0.0067970413715 -0.0050854581451 -0.0067970413715 -0.0044626098454 -0.0059677158204 -0.0073617742837
          -0.0067970413715 -0.0073617742837 -0.0059677158204 -0.0054213877572 -0.0059677158204 -0.0044626098454
          -0.0059677158204 -0.0054213877572 -0.0047573974533 -0.0071311563928 -0.0054194658491 -0.0071311563928
          -0.0047573974533 -0.0071311563928 -0.0098324357457 -0.0078749923944 -0.0098324357457 -0.0071311563928
          -0.0054194658491 -0.0078749923944 -0.0053470432925 -0.0078749923944 -0.0054194658491 -0.0071311563928
          -0.0098324357457 -0.0078749923944 -0.0098324357457 -0.0071311563928 -0.0047573974533 -0.0071311563928
          -0.0054194658491 -0.0071311563928 -0.0047573974533 -0.0042866717187 -0.0069967546062 -0.0058017595388
          -0.0069967546062 -0.0042866717187 -0.0069967546062 -0.0096609623307 -0.0074471765475 -0.0096609623307
          -0.0069967546062 -0.0058017595388 -0.0074471765475 -0.0050068115504 -0.0074471765475 -0.0058017595388
          -0.0069967546062 -0.0096609623307 -0.0074471765475 -0.0096609623307 -0.0069967546062 -0.0042866717187
          -0.0069967546062 -0.0058017595388 -0.0069967546062 -0.0042866717187 -0.0044879593887 -0.0058534769932
          -0.0052729471481 -0.0058534769932 -0.0044879593887 -0.0058534769932 -0.0076041042826 -0.0058558908088
          -0.0076041042826 -0.0058534769932 -0.0052729471481 -0.0058558908088 -0.0041069056062 -0.0058558908088
          -0.0052729471481 -0.0058534769932 -0.0076041042826 -0.0058558908088 -0.0076041042826 -0.0058534769932
          -0.0044879593887 -0.0058534769932 -0.0052729471481 -0.0058534769932 -0.0044879593887 -0.0056033701486
          -0.0054645901132 -0.0051625336664 -0.0054645901132 -0.0056033701486 -0.0054645901132 -0.0060219947957
          -0.0048708526933 -0.0060219947957 -0.0054645901132 -0.0051625336664 -0.0048708526933 -0.0038118539789
          -0.0048708526933 -0.0051625336664 -0.0054645901132 -0.0060219947957 -0.0048708526933 -0.0060219947957
          -0.0054645901132 -0.0056033701486 -0.0054645901132 -0.0051625336664 -0.0054645901132 -0.0056033701486
          -0.0045869448158 -0.0038798957781 -0.0037246684096 -0.0038798957781 -0.0045869448158 -0.0038798957781
          -0.0039587026938 -0.0033687371044 -0.0039587026938 -0.0038798957781 -0.0037246684096 -0.0033687371044
          -0.0027880827401 -0.0033687371044 -0.0037246684096 -0.0038798957781 -0.0039587026938 -0.0033687371044
          -0.0039587026938 -0.0038798957781 -0.0045869448158 -0.0038798957781 -0.0037246684096 -0.0038798957781
          -0.0045869448158 -0.0031303366753 -0.0025847588701 -0.0023193872128 -0.0025847588701 -0.0031303366753
          -0.0025847588701 -0.0026546794279 -0.002255131835 -0.0026546794279 -0.0025847588701 -0.0023193872128
          -0.002255131835 -0.0017741246454 -0.002255131835 -0.0023193872128 -0.0025847588701 -0.0026546794279
          -0.002255131835 -0.0026546794279 -0.0025847588701 -0.0031303366753 -0.0025847588701 -0.0023193872128
          -0.0025847588701 -0.0031303366753 -0.0011942184358 -0.0013463829416 -0.0010835209127 -0.0013463829416
          -0.0011942184358 -0.0013463829416 -0.0017694864284 -0.0014161096281 -0.0017694864284 -0.0013463829416
          -0.0010835209127 -0.0014161096281 -0.00089051117272 -0.0014161096281 -0.0010835209127 -0.0013463829416
          -0.0017694864284 -0.0014161096281 -0.0017694864284 -0.0013463829416 -0.0011942184358 -0.0013463829416
          -0.0010835209127 -0.0013463829416 -0.0011942184358 0.00028678745164 -0.00038615226866 -0.00024562375376
          -0.00038615226866 0.00028678745164 -0.00038615226866 -0.00098445184897 -0.00070526640434 -0.00098445184897
          -0.00038615226866 -0.00024562375376 -0.00070526640434 -0.00022683359753 -0.00070526640434 -0.00024562375376
          -0.00038615226866 -0.00098445184897 -0.00070526640434 -0.00098445184897 -0.00038615226866 0.00028678745164
          -0.00038615226866 -0.00024562375376 -0.00038615226866 0.00028678745164 0.00036042570267 -0.00011432389895
          3.3118323958e-05 -0.00011432389895 0.00036042570267 -0.00011432389895 -0.000546354081 -0.00033643125956
          -0.000546354081 -0.00011432389895 3.3118323958e-05 -0.00033643125956 -1.5902391834e-05 -0.00033643125956
          3.3118323958e-05 -0.00011432389895 -0.000546354081 -0.00033643125956 -0.000546354081 -0.00011432389895
          0.00036042570267 -0.00011432389895 3.3118323958e-05 -0.00011432389895 0.00036042570267 0.00073926561444
          -2.7562781119e-05 -0.00039011304168 -2.756278112e-05 0.00073926561444 -2.756278112e-05 -0.00069173680563
          -0.00088164523524 -0.00069173680562 -2.756278112e-05 -0.00039011304168 -0.00088164523524 -0.00090105166697
          -0.00088164523524 -0.00039011304168 -2.7562781119e-05 -0.00069173680563 -0.00088164523524 -0.00069173680563
          -2.756278112e-05 0.00073926561444 -2.756278112e-05 -0.00039011304168 -2.756278112e-05 0.00073926561444
          0.004303450244 0.0039433906791 0.0050711589523 0.0039433906791 0.004303450244 0.0039433906791
          0.004485358404 0.0051556621262 0.004485358404 0.0039433906791 0.0050711589523 0.0051556621262
          0.010202426423 0.0051556621262 0.0050711589523 0.0039433906791 0.004485358404 0.0051556621262
          0.004485358404 0.0039433906791 0.004303450244 0.0039433906791 0.0050711589523 0.0039433906791
          0.004303450244 -0.0029576330717 -6.8063790269e-05 0.0031720223193 -6.8063790269e-05 -0.0029576330717
          -6.8063790269e-05 0.0038567429323 0.0038175287628 0.0038567429323 -6.8063790269e-05 0.0031720223193
          0.0038175287628 0.0038931098895 0.0038175287628 0.0031720223193 -6.806379027e-05 0.0038567429323
          0.0038175287628 0.0038567429323 -6.8063790269e-05 -0.0029576330717 -6.8063790269e-05 0.0031720223193
          -6.8063790269e-05 -0.0029576330717 -0.0043318946824 -0.00045457176034 0.0016135862953 -0.00045457176034
          -0.0043318946824 -0.00045457176034 0.001125449532 -0.00029475745465 0.001125449532 -0.00045457176034
          0.0016135862953 -0.00029475745465 -1.9048321278e-05 -0.00029475745465 0.0016135862953 -0.00045457176034
          0.001125449532 -0.00029475745465 0.001125449532 -0.00045457176034 -0.0043318946824 -0.00045457176034
          0.0016135862953 -0.00045457176034 -0.0043318946824
        </DataArray>
        <DataArray type="Float64" Name="Displacement" NumberOfComponents="3" format="ascii" RangeMin="0.0001602709188" RangeMax="0.00037223514002">
          -0.00018504196234 -5.500147113e-06 5.500147113e-06 -0.00018000847516 -5.0269204533e-06 -1.3490123889e-07
          -0.00017619812885 -6.8721814871e-06 -2.0914395219e-19 -0.00018000847516 -5.0269204533e-06 1.3490123889e-07
          -0.00018504196234 -5.500147113e-06 -5.500147113e-06 -0.00018000847516 1.3490123889e-07 5.0269204533e-06
          -0.00017094727098 1.7413106949e-06 -1.7413106949e-06 -0.00017174064187 1.9187650318e-06 -4.3537211598e-19
          -0.00017094727098 1.7413106949e-06 1.7413106949e-06 -0.00018000847516 1.3490123889e-07 -5.0269204533e-06
          -0.00017619812885 3.2529676572e-19 6.8721814871e-06 -0.00017174064187 6.9192003389e-20 -1.9187650318e-06
          -0.0001709470639 5.427571107e-21 -3.3900520188e-19 -0.00017174064187 -1.8987348159e-19 1.9187650318e-06
          -0.00017619812885 1.9009856136e-19 -6.8721814871e-06 -0.00018000847516 -1.3490123889e-07 5.0269204533e-06
          -0.00017094727098 -1.7413106949e-06 -1.7413106949e-06 -0.00017174064187 -1.9187650318e-06 -2.5728930677e-20
          -0.00017094727098 -1.7413106949e-06 1.7413106949e-06 -0.00018000847516 -1.3490123889e-07 -5.0269204533e-06
          -0.00018504196234 5.500147113e-06 5.500147113e-06 -0.00018000847516 5.0269204533e-06 -1.3490123889e-07
          -0.00017619812885 6.8721814871e-06 -4.6704228952e-19 -0.00018000847516 5.0269204533e-06 1.3490123889e-07
          -0.00018504196234 5.500147113e-06 -5.500147113e-06 -0.00019202056241 -8.5712296675e-06 8.5712296675e-06
          -0.00019495577575 -5.3549845682e-06 1.3520568576e-06 -0.00019552773792 -4.4473979508e-06 1.3313421006e-21
          -0.00019495577575 -5.3549845682e-06 -1.3520568576e-06 -0.00019202056241 -8.5712296675e-06 -8.5712296675e-06
          -0.00019495577575 -1.3520568576e-06 5.3549845682e-06 -0.00018492960961 1.0795001701e-05 -1.0795001701e-05
          -0.00018928406309 7.9785030701e-06 -1.1107441006e-20 -0.00018492960961 1.0795001701e-05 1.0795001701e-05
          -0.00019495577575 -1.3520568576e-06 -5.3549845682e-06 -0.00019552773792 5.0913218431e-19 4.4473979508e-06
          -0.00018928406309 -5.5433667643e-19 -7.9785030701e-06 -0.0001873508086 -3.2963297223e-19 1.0231326031e-19
          -0.00018928406309 -5.3769540816e-20 7.9785030701e-06 -0.00019552773792 -6.9103321475e-20 -4.4473979508e-06
          -0.00019495577575 1.3520568576e-06 5.3549845682e-06 -0.00018492960961 -1.0795001701e-05 -1.0795001701e-05
          -0.00018928406309 -7.9785030701e-06 -2.2364807611e-19 -0.00018492960961 -1.0795001701e-05 1.0795001701e-05
          -0.00019495577575 1.3520568576e-06 -5.3549845682e-06 -0.00019202056241 8.5712296675e-06 8.5712296675e-06
          -0.00019495577575 5.3549845682e-06 1.3520568576e-06 -0.00019552773792 4.4473979508e-06 2.7493858027e-19
          -0.00019495577575 5.3549845682e-06 -1.3520568576e-06 -0.00019202056241 8.5712296675e-06 -8.5712296675e-06
          -0.00018220333948 -2.3061290672e-06 2.3061290672e-06 -0.00018064533634 -1.6650814178e-06 2.0150123524e-06
          -0.00018307192093 1.0347652578e-06 2.1725612015e-19 -0.00018064533634 -1.6650814178e-06 -2.0150123524e-06
          -0.00018220333948 -2.3061290672e-06 -2.3061290672e-06 -0.00018064533634 -2.0150123524e-06 1.6650814178e-06
          -0.00017098215133 1.2400530313e-05 -1.2400530313e-05 -0.0001771260496 6.8488864887e-06 -3.1530659396e-20
          -0.00017098215133 1.2400530313e-05 1.2400530313e-05 -0.00018064533634 -2.0150123524e-06 -1.6650814178e-06
          -0.00018307192093 -1.6925819162e-19 -1.0347652578e-06 -0.0001771260496 -6.4648320323e-19 -6.8488864887e-06
          -0.00018118687324 -6.102068878e-19 -3.5442833652e-19 -0.0001771260496 -4.2069979537e-19 6.8488864887e-06
          -0.00018307192093 1.6468627676e-19 1.0347652578e-06 -0.00018064533634 2.0150123524e-06 1.6650814178e-06
          -0.00017098215133 -1.2400530313e-05 -1.2400530313e-05 -0.0001771260496 -6.8488864887e-06 1.8757967897e-19
          -0.00017098215133 -1.2400530313e-05 1.2400530313e-05 -0.00018064533634 2.0150123524e-06 -1.6650814178e-06
          -0.00018220333948 2.3061290672e-06 2.3061290672e-06 -0.00018064533634 1.6650814178e-06 2.0150123524e-06
          -0.00018307192093 -1.0347652578e-06 1.5855436182e-19 -0.00018064533634 1.6650814178e-06 -2.0150123524e-06
          -0.00018220333948 2.3061290672e-06 -2.3061290672e-06 -0.00018194733429 3.2315247223e-06 -3.2315247223e-06
          -0.00017952705408 2.1311926684e-06 5.766174144e-06 -0.00017747347712 6.5794706105e-06 1.6900847353e-19
          -0.00017952705408 2.1311926684e-06 -5.766174144e-06 -0.00018194733429 3.2315247223e-06 3.2315247223e-06
          -0.00017952705408 -5.766174144e-06 -2.1311926684e-06 -0.00017269959483 4.3600310428e-06 -4.3600310428e-06
          -0.0001734727353 2.3642197157e-06 -1.463687065e-19 -0.00017269959483 4.3600310428e-06 4.3600310428e-06
          -0.00017952705408 -5.766174144e-06 2.1311926684e-06 -0.00017747347712 2.1118267974e-19 -6.5794706105e-06
          -0.0001734727353 2.3355673637e-19 -2.3642197157e-06 -0.00017791295193 5.33724296e-20 4.0026818119e-20
          -0.0001734727353 7.3566947937e-19 2.3642197157e-06 -0.00017747347712 4.5121869288e-19 6.5794706105e-06
          -0.00017952705408 5.766174144e-06 -2.1311926684e-06 -0.00017269959483 -4.3600310428e-06 -4.3600310428e-06
          -0.0001734727353 -2.3642197157e-06 7.8944533741e-20 -0.00017269959483 -4.3600310428e-06 4.3600310428e-06
          -0.00017952705408 5.766174144e-06 2.1311926684e-06 -0.00018194733429 -3.2315247223e-06 -3.2315247223e-06
          -0.00017952705408 -2.1311926684e-06 5.766174144e-06 -0.00017747347712 -6.5794706105e-06 -1.7148984352e-19
          -0.00017952705408 -2.1311926684e-06 -5.766174144e-06 -0.00018194733429 -3.2315247223e-06 3.2315247223e-06
          -0.00020285814415 9.5082058582e-06 -9.5082058582e-06 -0.00020041267815 1.2386074779e-06 2.1643863484e-06
          -0.00019283570591 4.0255286055e-06 -2.6881520596e-19 -0.00020041267815 1.2386074779e-06 -2.1643863484e-06
          -0.00020285814415 9.5082058582e-06 9.5082058582e-06 -0.00020041267815 -2.1643863484e-06 -1.2386074779e-06
          -0.00018700896743 -2.6511457061e-06 2.6511457061e-06 -0.00018224627769 -2.5629795899e-06 -1.4061185508e-19
          -0.00018700896743 -2.6511457061e-06 -2.6511457061e-06 -0.00020041267815 -2.1643863484e-06 1.2386074779e-06
          -0.00019283570591 -3.5255711598e-20 -4.0255286055e-06 -0.00018224627769 -1.2068071046e-19 2.5629795899e-06
          -0.0001865214163 2.5136927286e-19 -4.5946127605e-20 -0.00018224627769 -8.443706323e-20 -2.5629795899e-06
          -0.00019283570591 3.1121357863e-19 4.0255286055e-06 -0.00020041267815 2.1643863484e-06 -1.2386074779e-06
          -0.00018700896743 2.6511457061e-06 2.6511457061e-06 -0.00018224627769 2.5629795899e-06 9.0472112806e-20
          -0.00018700896743 2.6511457061e-06 -2.6511457061e-06 -0.00020041267815 2.1643863484e-06 1.2386074779e-06
          -0.00020285814415 -9.5082058582e-06 -9.5082058582e-06 -0.00020041267815 -1.2386074779e-06 2.1643863484e-06
          -0.00019283570591 -4.0255286055e-06 5.6690467423e-21 -0.00020041267815 -1.2386074779e-06 -2.1643863484e-06
          -0.00020285814415 -9.5082058582e-06 9.5082058582e-06 -0.00020638231066 3.4083975739e-07 -3.4083975739e-07
          -0.00020943062665 -9.278696105e-06 3.5248327037e-06 -0.000199016994 -6.1630316227e-06 7.9821388891e-20
          -0.00020943062665 -9.278696105e-06 -3.5248327037e-06 -0.00020638231066 3.4083975739e-07 3.4083975739e-07
          -0.00020943062665 -3.5248327037e-06 9.278696105e-06 -0.00020078530985 -1.1698352371e-05 1.1698352371e-05
          -0.00019287126482 -8.6403955047e-06 -5.038673208e-19 -0.00020078530985 -1.1698352371e-05 -1.1698352371e-05
          -0.00020943062665 -3.5248327037e-06 -9.278696105e-06 -0.000199016994 7.4009359667e-20 6.1630316227e-06
          -0.00019287126482 1.5954111523e-19 8.6403955047e-06 -0.00019208498561 -1.1185686377e-19 2.8926128621e-21
          -0.00019287126482 2.0921811497e-19 -8.6403955047e-06 -0.000199016994 -4.3456956238e-19 -6.1630316227e-06
          -0.00020943062665 3.5248327037e-06 9.278696105e-06 -0.00020078530985 1.1698352371e-05 1.1698352371e-05
          -0.00019287126482 8.6403955047e-06 -1.6222379618e-19 -0.00020078530985 1.1698352371e-05 -1.1698352371e-05
          -0.00020943062665 3.5248327037e-06 -9.278696105e-06 -0.00020638231066 -3.4083975739e-07 -3.4083975739e-07
          -0.00020943062665 9.278696105e-06 3.5248327037e-06 -0.000199016994 6.1630316227e-06 -3.4966818888e-20
          -0.00020943062665 9.278696105e-06 -3.5248327037e-06 -0.00020638231066 -3.4083975739e-07 3.4083975739e-07
          -0.00022076676274 -6.9565296859e-06 6.9565296859e-06 -0.00022461881326 -1.7254346036e-05 9.9632290518e-07
          -0.00021567156512 -1.5747899503e-05 1.9178606493e-20 -0.00022461881326 -1.7254346036e-05 -9.9632290518e-07
          -0.00022076676274 -6.9565296859e-06 -6.9565296859e-06 -0.00022461881326 -9.9632290519e-07 1.7254346036e-05
          -0.0002141664016 -1.1711724106e-05 1.1711724106e-05 -0.00020647789166 -8.1159887959e-06 2.0950347344e-20
          -0.0002141664016 -1.1711724106e-05 -1.1711724106e-05 -0.00022461881326 -9.9632290519e-07 -1.7254346036e-05
          -0.00021567156512 -3.5544346884e-19 1.5747899503e-05 -0.00020647789166 -4.1173595233e-19 8.1159887959e-06
          -0.00020569995909 -1.5940342983e-19 -9.1055170348e-20 -0.00020647789166 -5.4407161192e-19 -8.1159887959e-06
          -0.00021567156512 2.0332767188e-19 -1.5747899503e-05 -0.00022461881326 9.9632290518e-07 1.7254346036e-05
          -0.0002141664016 1.1711724106e-05 1.1711724106e-05 -0.00020647789166 8.1159887959e-06 -4.3181541607e-21
          -0.0002141664016 1.1711724106e-05 -1.1711724106e-05 -0.00022461881326 9.9632290518e-07 -1.7254346036e-05
          -0.00022076676274 6.9565296859e-06 6.9565296859e-06 -0.00022461881326 1.7254346036e-05 9.9632290518e-07
          -0.00021567156512 1.5747899503e-05 1.9542978597e-19 -0.00022461881326 1.7254346036e-05 -9.9632290519e-07
          -0.00022076676274 6.9565296859e-06 -6.9565296859e-06 -0.00023404008639 -1.6632445449e-05 1.6632445449e-05
          -0.00024312503367 -2.188236373e-05 2.4106116614e-06 -0.00023834748464 -2.017931386e-05 -2.4662210973e-19
          -0.00024312503367 -2.188236373e-05 -2.4106116614e-06 -0.00023404008639 -1.6632445449e-05 -1.6632445449e-05
          -0.00024312503367 -2.4106116614e-06 2.188236373e-05 -0.00024003563613 -1.0294137188e-05 1.0294137188e-05
          -0.00023499988348 -6.6611910306e-06 5.8921529631e-20 -0.00024003563613 -1.0294137188e-05 -1.0294137188e-05
          -0.00024312503367 -2.4106116614e-06 -2.188236373e-05 -0.00023834748464 -4.7794298492e-19 2.017931386e-05
          -0.00023499988348 -3.9616151499e-19 6.6611910306e-06 -0.00023379437006 -2.4574317828e-19 2.7760631774e-19
          -0.00023499988348 -1.7470748779e-19 -6.6611910306e-06 -0.00023834748464 -6.1467349693e-20 -2.017931386e-05
          -0.00024312503367 2.4106116614e-06 2.188236373e-05 -0.00024003563613 1.0294137188e-05 1.0294137188e-05
          -0.00023499988348 6.6611910306e-06 1.6506003435e-19 -0.00024003563613 1.0294137188e-05 -1.0294137188e-05
          -0.00024312503367 2.4106116614e-06 -2.188236373e-05 -0.00023404008639 1.6632445449e-05 1.6632445449e-05
          -0.00024312503367 2.188236373e-05 2.4106116614e-06 -0.00023834748464 2.017931386e-05 2.4885410858e-19
          -0.00024312503367 2.188236373e-05 -2.4106116614e-06 -0.00023404008639 1.6632445449e-05 -1.6632445449e-05
          -0.00025968760306 -1.9145477842e-05 1.9145477842e-05 -0.00027114533038 -2.0221268078e-05 1.9461967219e-06
          -0.0002714202334 -1.8695510191e-05 9.9667721204e-20 -0.00027114533038 -2.0221268078e-05 -1.9461967219e-06
          -0.00025968760306 -1.9145477842e-05 -1.9145477842e-05 -0.00027114533038 -1.9461967219e-06 2.0221268078e-05
          -0.00027450978011 -4.4820490698e-06 4.4820490698e-06 -0.00027387825804 -2.8010903043e-06 -1.149415737e-19
          -0.00027450978011 -4.4820490698e-06 -4.4820490698e-06 -0.00027114533038 -1.9461967219e-06 -2.0221268078e-05
          -0.0002714202334 -7.3221299811e-20 1.8695510191e-05 -0.00027387825804 -5.0123785435e-19 2.8010903043e-06
          -0.00027455549034 3.7636542072e-20 -7.5527451399e-20 -0.00027387825804 4.4851563665e-20 -2.8010903043e-06
          -0.0002714202334 1.8318866295e-19 -1.8695510191e-05 -0.00027114533038 1.9461967219e-06 2.0221268078e-05
          -0.00027450978011 4.4820490698e-06 4.4820490698e-06 -0.00027387825804 2.8010903043e-06 -6.4573514836e-19
          -0.00027450978011 4.4820490698e-06 -4.4820490698e-06 -0.00027114533038 1.9461967219e-06 -2.0221268078e-05
          -0.00025968760306 1.9145477842e-05 1.9145477842e-05 -0.00027114533038 2.0221268078e-05 1.9461967219e-06
          -0.0002714202334 1.8695510191e-05 2.8616659532e-19 -0.00027114533038 2.0221268078e-05 -1.9461967219e-06
          -0.00025968760306 1.9145477842e-05 -1.9145477842e-05 -0.000281496595 -1.7584241737e-05 1.7584241737e-05
          -0.00028824340871 -1.5895140355e-05 3.3516129443e-06 -0.00029158486874 -1.4163807278e-05 2.8794559608e-19
          -0.00028824340871 -1.5895140355e-05 -3.3516129443e-06 -0.000281496595 -1.7584241737e-05 -1.7584241737e-05
          -0.00028824340871 -3.3516129443e-06 1.5895140355e-05 -0.00029180002103 -1.9970837026e-06 1.9970837026e-06
          -0.00029395227445 -1.5853834852e-06 2.2254211332e-19 -0.00029180002103 -1.9970837026e-06 -1.9970837026e-06
          -0.00028824340871 -3.3516129443e-06 -1.5895140355e-05 -0.00029158486874 -3.0330922524e-19 1.4163807278e-05
          -0.00029395227445 -7.7626784625e-20 1.5853834852e-06 -0.00029556543586 -1.1356848206e-20 4.3384617973e-19
          -0.00029395227445 9.8321392393e-20 -1.5853834852e-06 -0.00029158486874 -5.7941824318e-19 -1.4163807278e-05
          -0.00028824340871 3.3516129443e-06 1.5895140355e-05 -0.00029180002103 1.9970837026e-06 1.9970837026e-06
          -0.00029395227445 1.5853834852e-06 9.8712233431e-20 -0.00029180002103 1.9970837026e-06 -1.9970837026e-06
          -0.00028824340871 3.3516129443e-06 -1.5895140355e-05 -0.000281496595 1.7584241737e-05 1.7584241737e-05
          -0.00028824340871 1.5895140355e-05 3.3516129443e-06 -0.00029158486874 1.4163807278e-05 9.667575232e-20
          -0.00028824340871 1.5895140355e-05 -3.3516129443e-06 -0.000281496595 1.7584241737e-05 -1.7584241737e-05
          -0.00030653770053 -1.2617069536e-05 1.2617069536e-05 -0.00030934788489 -1.1382718591e-05 3.9703743481e-06
          -0.00031287580293 -9.4619774124e-06 -2.6879634377e-19 -0.00030934788489 -1.1382718591e-05 -3.9703743481e-06
          -0.00030653770053 -1.2617069536e-05 -1.2617069536e-05 -0.00030934788489 -3.9703743481e-06 1.1382718591e-05
          -0.00031361723986 -1.6321108082e-06 1.6321108082e-06 -0.00031621259811 -1.956507285e-06 -2.5930415556e-19
          -0.00031361723986 -1.6321108082e-06 -1.6321108082e-06 -0.00030934788489 -3.9703743481e-06 -1.1382718591e-05
          -0.00031287580293 2.0894846961e-19 9.4619774124e-06 -0.00031621259811 -2.8365103242e-19 1.956507285e-06
          -0.00031791950385 -3.5197268879e-20 3.9041765816e-19 -0.00031621259811 5.7951345139e-20 -1.956507285e-06
          -0.00031287580293 -3.6076845171e-19 -9.4619774124e-06 -0.00030934788489 3.9703743481e-06 1.1382718591e-05
          -0.00031361723986 1.6321108082e-06 1.6321108082e-06 -0.00031621259811 1.956507285e-06 -1.5332262351e-19
          -0.00031361723986 1.6321108082e-06 -1.6321108082e-06 -0.00030934788489 3.9703743481e-06 -1.1382718591e-05
          -0.00030653770053 1.2617069536e-05 1.2617069536e-05 -0.00030934788489 1.1382718591e-05 3.9703743481e-06
          -0.00031287580293 9.4619774124e-06 -1.8359547142e-20 -0.00030934788489 1.1382718591e-05 -3.9703743481e-06
          -0.00030653770053 1.2617069536e-05 -1.2617069536e-05 -0.00032913466261 -7.0775668012e-06 7.0775668012e-06
          -0.00032822932916 -7.3770094308e-06 3.7981268384e-06 -0.00033000779414 -5.4997179591e-06 4.2602754962e-19
          -0.00032822932916 -7.3770094308e-06 -3.7981268384e-06 -0.00032913466261 -7.0775668012e-06 -7.0775668012e-06
          -0.00032822932916 -3.7981268384e-06 7.3770094308e-06 -0.00032881681898 -2.5644391495e-06 2.5644391495e-06
          -0.00032996818286 -2.950055266e-06 3.9869744245e-19 -0.00032881681898 -2.5644391495e-06 -2.5644391495e-06
          -0.00032822932916 -3.7981268384e-06 -7.3770094308e-06 -0.00033000779414 -1.7478420055e-19 5.4997179591e-06
          -0.00032996818286 2.832351764e-20 2.950055266e-06 -0.00033068512132 -1.1032216093e-19 3.7287371917e-19
          -0.00032996818286 3.2003845003e-19 -2.950055266e-06 -0.00033000779414 2.8913291284e-19 -5.4997179591e-06
          -0.00032822932916 3.7981268384e-06 7.3770094308e-06 -0.00032881681898 2.5644391495e-06 2.5644391495e-06
          -0.00032996818286 2.950055266e-06 -4.7141899337e-19 -0.00032881681898 2.5644391495e-06 -2.5644391495e-06
          -0.00032822932916 3.7981268384e-06 -7.3770094308e-06 -0.00032913466261 7.0775668012e-06 7.0775668012e-06
          -0.00032822932916 7.3770094308e-06 3.7981268384e-06 -0.00033000779414 5.4997179591e-06 1.4657463643e-19
          -0.00032822932916 7.3770094308e-06 -3.7981268384e-06 -0.00032913466261 7.0775668012e-06 -7.0775668012e-06
          -0.00034251009596 -4.9881446223e-06 4.9881446223e-06 -0.00034049207916 -6.5531495907e-06 3.343209633e-06
          -0.0003404423201 -4.7837151289e-06 4.2066050284e-19 -0.00034049207916 -6.5531495907e-06 -3.343209633e-06