<?xml version="1.0"?>
<VTKFile type="UnstructuredGrid" version="0.1" byte_order="LittleEndian" compressor="vtkZLibDataCompressor">
  <UnstructuredGrid>
    <Piece NumberOfPoints="525" NumberOfCells="525">
      <PointData>
        <DataArray type="Float64" Name="Damage" format="ascii" RangeMin="0" RangeMax="0">
          0 0 0 0 0 0
          0 0 0 0 0 0
          0 0 0 0 0 0
          0 0 0 0 0 0
          0 0 0 0 0 0
          0 0 0 0 0 0
          0 0 0 0 0 0
          0 0 0 0 0 0
          0 0 0 0 0 0
          0 0 0 0 0 0
          0 0 0 0 0 0
          0 0 0 0 0 0
          0 0 0 0 0 0
          0 0 0 0 0 0
          0 0 0 0 0 0
          0 0 0 0 0 0
          0 0 0 0 0 0
          0 0 0 0 0 0
          0 0 0 0 0 0
          0 0 0 0 0 0
          0 0 0 0 0 0
          0 0 0 0 0 0
          0 0 0 0 0 0
          0 0 0 0 0 0
          0 0 0 0 0 0
          0 0 0 0 0 0
          0 0 0 0 0 0
          0 0 0 0 0 0
          0 0 0 0 0 0
          0 0 0 0 0 0
          0 0 0 0 0 0
          0 0 0 0 0 0
          0 0 0 0 0 0
          0 0 0 0 0 0
          0 0 0 0 0 0
          0 0 0 0 0 0
          0 0 0 0 0 0
          0 0 0 0 0 0
          0 0 0 0 0 0
          0 0 0 0 0 0
          0 0 0 0 0 0
          0 0 0 0 0 0
          0 0 0 0 0 0
          0 0 0 0 0 0
          0 0 0 0 0 0
          0 0 0 0 0 0
          0 0 0 0 0 0
          0 0 0 0 0 0
          0 0 0 0 0 0
          0 0 0 0 0 0
          0 0 0 0 0 0
          0 0 0 0 0 0
          0 0 0 0 0 0
          0 0 0 0 0 0
          0 0 0 0 0 0
          0 0 0 0 0 0
          0 0 0 0 0 0
          0 0 0 0 0 0
          0 0 0 0 0 0
          0 0 0 0 0 0
          0 0 0 0 0 0
          0 0 0 0 0 0
          0 0 0 0 0 0
          0 0 0 0 0 0
          0 0 0 0 0 0
          0 0 0 0 0 0
          0 0 0 0 0 0
          0 0 0 0 0 0
          0 0 0 0 0 0
          0 0 0 0 0 0
          0 0 0 0 0 0
          0 0 0 0 0 0
          0 0 0 0 0 0
          0 0 0 0 0 0
          0 0 0 0 0 0
          0 0 0 0 0 0
          0 0 0 0 0 0
          0 0 0 0 0 0
          0 0 0 0 0 0
          0 0 0 0 0 0
          0 0 0 0 0 0
          0 0 0 0 0 0
          0 0 0 0 0 0
          0 0 0 0 0 0
          0 0 0 0 0 0
          0 0 0 0 0 0
          0 0 0 0 0 0
          0 0 0
        </DataArray>
        <DataArray type="Float64" Name="Dilatation" format="ascii" RangeMin="-0.0080560540271" RangeMax="0.003773839535">
          -0.0058477228464 -0.002655108889 -0.00084110851779 -0.002655108889 -0.0058477228464 -0.002655108889
          -0.0008480412134 -0.0015825952379 -0.0008480412134 -0.002655108889 -0.00084110851779 -0.0015825952379
          -0.0010557144097 -0.0015825952379 -0.00084110851779 -0.002655108889 -0.0008480412134 -0.0015825952379
          -0.0008480412134 -0.002655108889 -0.0058477228464 -0.002655108889 -0.00084110851779 -0.002655108889
          -0.0058477228464 -0.0070689550285 -0.0043926262354 -0.0019127715647 -0.0043926262354 -0.0070689550285
          -0.0043926262354 -0.0006163608371 -0.0025534196474 -0.0006163608371 -0.0043926262354 -0.0019127715647
          -0.0025534196474 -0.0026697468477 -0.0025534196474 -0.0019127715647 -0.0043926262354 -0.0006163608371
          -0.0025534196474 -0.0006163608371 -0.0043926262354 -0.0070689550285 -0.0043926262354 -0.0019127715647
          -0.0043926262354 -0.0070689550285 -0.0022069160874 -0.0032930613998 -0.0015291572987 -0.0032930613998
          -0.0022069160874 -0.0032930613998 -0.0012549250571 -0.0029007982376 -0.0012549250571 -0.0032930613998
          -0.0015291572987 -0.0029007982376 -0.0023449673262 -0.0029007982376 -0.0015291572987 -0.0032930613998
          -0.0012549250571 -0.0029007982376 -0.0012549250571 -0.0032930613998 -0.0022069160874 -0.0032930613998
          -0.0015291572987 -0.0032930613998 -0.0022069160874 -0.00092305206836 -0.00397975854 -0.00062787449559
          -0.00397975854 -0.00092305206836 -0.00397975854 -0.0047208400017 -0.0031692347506 -0.0047208400017
          -0.00397975854 -0.00062787449559 -0.0031692347506 -0.0015621049859 -0.0031692347506 -0.00062787449559
          -0.00397975854 -0.0047208400017 -0.0031692347506 -0.0047208400017 -0.00397975854 -0.00092305206836
          -0.00397975854 -0.00062787449559 -0.00397975854 -0.00092305206836 0.003773839535 -0.0023465405635
          -0.00084135001135 -0.0023465405635 0.003773839535 -0.0023465405635 -0.0056549888181 -0.002778713924
          -0.0056549888181 -0.0023465405635 -0.00084135001135 -0.002778713924 -0.00031581621191 -0.002778713924
          -0.00084135001135 -0.0023465405635 -0.0056549888181 -0.002778713924 -0.0056549888181 -0.0023465405635
          0.003773839535 -0.0023465405635 -0.00084135001135 -0.0023465405635 0.003773839535 0.00033104707556
          -0.0038118327379 -0.0028413804496 -0.0038118327379 0.00033104707556 -0.0038118327379 -0.0076923409278
          -0.003733173943 -0.0076923409278 -0.0038118327379 -0.0028413804496 -0.003733173943 -0.00079182325959
          -0.003733173943 -0.0028413804496 -0.0038118327379 -0.0076923409278 -0.003733173943 -0.0076923409278
          -0.0038118327379 0.00033104707556 -0.0038118327379 -0.0028413804496 -0.0038118327379 0.00033104707556
          -0.0013545047692 -0.0038336261825 -0.0039130838802 -0.0038336261825 -0.0013545047692 -0.0038336261825
          -0.0072402908316 -0.0042855982937 -0.0072402908316 -0.0038336261825 -0.0039130838802 -0.0042855982937
          -0.001904910766 -0.0042855982937 -0.0039130838802 -0.0038336261825 -0.0072402908316 -0.0042855982937
          -0.0072402908316 -0.0038336261825 -0.0013545047692 -0.0038336261825 -0.0039130838802 -0.0038336261825
          -0.0013545047692 -0.0027886575067 -0.002666711183 -0.0027571890154 -0.002666711183 -0.0027886575067
          -0.002666711183 -0.0057057234154 -0.0037680982414 -0.0057057234154 -0.002666711183 -0.0027571890154
          -0.0037680982414 -0.001958249607 -0.0037680982414 -0.0027571890154 -0.002666711183 -0.0057057234154
          -0.0037680982414 -0.0057057234154 -0.002666711183 -0.0027886575067 -0.002666711183 -0.0027571890154
          -0.002666711183 -0.0027886575067 -0.0025560436313 -0.0015414216816 -0.001455044936 -0.0015414216816
          -0.0025560436313 -0.0015414216816 -0.0037834343008 -0.0030906757709 -0.0037834343008 -0.0015414216816
          -0.001455044936 -0.0030906757709 -0.0017886630164 -0.0030906757709 -0.001455044936 -0.0015414216816
          -0.0037834343008 -0.0030906757709 -0.0037834343008 -0.0015414216816 -0.0025560436313 -0.0015414216816
          -0.001455044936 -0.0015414216816 -0.0025560436313 -0.0016933141991 -0.0012611589593 -0.00070837238937
          -0.0012611589593 -0.0016933141991 -0.0012611589593 -0.0032296272879 -0.0028406835032 -0.0032296272879
          -0.0012611589593 -0.00070837238937 -0.0028406835032 -0.0016077434442 -0.0028406835032 -0.00070837238937
          -0.0012611589593 -0.0032296272879 -0.0028406835032 -0.0032296272879 -0.0012611589593 -0.0016933141991
          -0.0012611589593 -0.00070837238937 -0.0012611589593 -0.0016933141991 -0.0015076705697 -0.002176709633
          -0.0011222120182 -0.002176709633 -0.0015076705697 -0.002176709633 -0.0036805612603 -0.0029990606433
          -0.0036805612603 -0.002176709633 -0.0011222120182 -0.0029990606433 -0.0016868435683 -0.0029990606433
          -0.0011222120182 -0.002176709633 -0.0036805612603 -0.0029990606433 -0.0036805612603 -0.002176709633
          -0.0015076705697 -0.002176709633 -0.0011222120182 -0.002176709633 -0.0015076705697 -0.00020458038933
          -0.0015187945783 -0.0006088451343 -0.0015187945783 -0.00020458038933 -0.0015187945783 -0.0024036341979
          -0.0017632540805 -0.0024036341979 -0.0015187945783 -0.0006088451343 -0.0017632540805 -0.00085048679988
          -0.0017632540805 -0.0006088451343 -0.0015187945783 -0.0024036341979 -0.0017632540805 -0.0024036341979
          -0.0015187945783 -0.00020458038933 -0.0015187945783 -0.0006088451343 -0.0015187945783 -0.00020458038933
          -0.00098815619179 -0.0016125860466 -0.00098560767932 -0.0016125860466 -0.00098815619179 -0.0016125860466
          -0.0011065112772 -0.00069368061073 -0.0011065112772 -0.0016125860466 -0.00098560767932 -0.00069368061073
          -0.00044248641026 -0.00069368061073 -0.00098560767932 -0.0016125860466 -0.0011065112772 -0.00069368061073
          -0.0011065112772 -0.0016125860466 -0.00098815619178 -0.0016125860466 -0.00098560767932 -0.0016125860466
          -0.00098815619179 -0.0014777633885 -0.0010744968209 -0.00097350192326 -0.0010744968209 -0.0014777633885
          -0.0010744968209 0.00076288304025 0.00058212901428 0.00076288304025 -0.0010744968209 -0.00097350192326
          0.00058212901428 -2.3369273275e-05 0.00058212901428 -0.00097350192326 -0.0010744968209 0.00076288304025
          0.00058212901428 0.00076288304025 -0.0010744968209 -0.0014777633885 -0.0010744968209 -0.00097350192326
          -0.0010744968209 -0.0014777633885 -0.001958966022 -0.00053508689133 -0.00073996681721 -0.00053508689133
          -0.001958966022 -0.00053508689133 0.0020738686051 0.0013960358619 0.0020738686051 -0.00053508689133
          -0.00073996681721 0.0013960358619 0.00017195542733 0.0013960358619 -0.00073996681721 -0.00053508689133
          0.0020738686051 0.0013960358619 0.0020738686051 -0.00053508689133 -0.001958966022 -0.00053508689133
          -0.00073996681721 -0.00053508689133 -0.001958966022 -0.0019072089696 -9.2437692924e-05 -0.00039688657498
          -9.2437692924e-05 -0.0019072089696 -9.2437692924e-05 0.0024245860494 0.0015654887418 0.0024245860494
          -9.2437692924e-05 -0.00039688657498 0.0015654887418 0.00021149462808 0.0015654887418 -0.00039688657498
          -9.2437692924e-05 0.0024245860494 0.0015654887418 0.0024245860494 -9.2437692924e-05 -0.0019072089696
          -9.2437692924e-05 -0.00039688657498 -9.2437692923e-05 -0.0019072089696 -0.00082497102462 0.0003913379603
          9.8533683942e-05 0.0003913379603 -0.00082497102462 0.0003913379603 0.0015924322952 0.00090399102977
          0.0015924322952 0.0003913379603 9.8533683942e-05 0.00090399102977 -7.5110058996e-05 0.00090399102977
          9.8533683942e-05 0.0003913379603 0.0015924322952 0.00090399102977 0.0015924322952 0.0003913379603
          -0.00082497102462 0.0003913379603 9.8533683942e-05 0.0003913379603 -0.00082497102462 7.5968374636e-05
          0.0014553524834 0.0021017119136 0.0014553524834 7.5968374636e-05 0.0014553524834 0.0026644117521
          0.0030826628318 0.0026644117521 0.0014553524834 0.0021017119136 0.0030826628318 0.00313642807
          0.0030826628318 0.0021017119136 0.0014553524834 0.0026644117521 0.0030826628318 0.0026644117521
          0.0014553524834 7.5968374637e-05 0.0014553524834 0.0021017119136 0.0014553524834 7.5968374638e-05
          -0.0080560540271 -0.0058466434286 -0.0057810017802 -0.0058466434286 -0.0080560540271 -0.0058466434286
          -0.0047880927282 -0.0038313931408 -0.0047880927282 -0.0058466434286 -0.0057810017802 -0.0038313931408
          -0.0039711966769 -0.0038313931408 -0.0057810017802 -0.0058466434286 -0.0047880927282 -0.0038313931408
          -0.0047880927282 -0.0058466434286 -0.0080560540271 -0.0058466434286 -0.0057810017802 -0.0058466434286
          -0.0080560540271 0.0013069177118 -0.0013973418441 -0.0035129446115 -0.0013973418441 0.0013069177118
          -0.0013973418441 -0.0037193859361 -0.0030488007332 -0.0037193859361 -0.0013973418441 -0.0035129446115
          -0.0030488007332 -0.0012467066997 -0.0030488007332 -0.0035129446115 -0.0013973418441 -0.0037193859361
          -0.0030488007332 -0.0037193859361 -0.0013973418441 0.0013069177118 -0.0013973418441 -0.0035129446115
          -0.0013973418441 0.0013069177118 0.0022195686627 -0.0026130722993 -0.0039297914553 -0.0026130722993
          0.0022195686627 -0.0026130722993 -0.0023536758262 -0.0010431629394 -0.0023536758262 -0.0026130722993
          -0.0039297914553 -0.0010431629394 -0.00065916461913 -0.0010431629394 -0.0039297914553 -0.0026130722993
          -0.0023536758262 -0.0010431629394 -0.0023536758262 -0.0026130722993 0.0022195686627 -0.0026130722993
          -0.0039297914553 -0.0026130722993 0.0022195686627
        </DataArray>
        <DataArray type="Float64" Name="Displacement" NumberOfComponents="3" format="ascii" RangeMin="0.00015797715926" RangeMax="0.00039979990717">
          -0.00018383686941 1.5462189893e-06 -1.5462189893e-06 -0.00018241386463 -3.7748122951e-06 -1.7752726025e-06
          -0.00018458004061 -7.562478236e-06 -3.9697327531e-19 -0.00018241386463 -3.7748122951e-06 1.7752726025e-06
          -0.00018383686941 1.5462189893e-06 1.5462189893e-06 -0.00018241386463 1.7752726025e-06 3.7748122951e-06
          -0.00019135682255 -5.7976158495e-06 5.7976158495e-06 -0.00019024689807 -3.9128624618e-07 -2.1595442602e-19
          -0.00019135682255 -5.7976158495e-06 -5.7976158495e-06 -0.00018241386463 1.7752726025e-06 -3.7748122951e-06
          -0.00018458004061 4.3159350726e-19 7.562478236e-06 -0.00019024689807 4.1182559961e-19 3.9128624618e-07
          -0.00019075150686 3.9707031117e-19 2.9870101178e-19 -0.00019024689807 -3.3399408227e-20 -3.9128624618e-07
          -0.00018458004061 1.6525038877e-19 -7.562478236e-06 -0.00018241386463 -1.7752726025e-06 3.7748122951e-06
          -0.00019135682255 5.7976158495e-06 5.7976158495e-06 -0.00019024689807 3.9128624618e-07 -3.757153598e-19
          -0.00019135682255 5.7976158495e-06 -5.7976158495e-06 -0.00018241386463 -1.7752726025e-06 -3.7748122951e-06
          -0.00018383686941 -1.5462189893e-06 -1.5462189893e-06 -0.00018241386463 3.7748122951e-06 -1.7752726025e-06
          -0.00018458004061 7.562478236e-06 2.1806533253e-19 -0.00018241386463 3.7748122951e-06 1.7752726025e-06
          -0.00018383686941 -1.5462189893e-06 1.5462189893e-06 -0.00019654749471 -1.8290689942e-06 1.8290689942e-06
          -0.00018242323905 -7.0721082314e-06 -7.5006505432e-07 -0.00018129542413 -1.1905655855e-05 -1.0165044669e-19
          -0.00018242323905 -7.0721082314e-06 7.5006505432e-07 -0.00019654749471 -1.8290689942e-06 -1.8290689942e-06
          -0.00018242323905 7.5006505432e-07 7.0721082314e-06 -0.00019331483757 -1.417564414e-05 1.417564414e-05
          -0.00019120134856 -7.654856166e-06 -4.9417064988e-19 -0.00019331483757 -1.417564414e-05 -1.417564414e-05
          -0.00018242323905 7.5006505432e-07 -7.0721082314e-06 -0.00018129542413 1.6205081505e-19 1.1905655855e-05
          -0.00019120134856 8.9284373842e-19 7.654856166e-06 -0.0001912799364 3.7190086236e-19 -3.9806830715e-19
          -0.00019120134856 -1.4652956998e-19 -7.654856166e-06 -0.00018129542413 2.9566560294e-19 -1.1905655855e-05
          -0.00018242323905 -7.5006505432e-07 7.0721082314e-06 -0.00019331483757 1.417564414e-05 1.417564414e-05
          -0.00019120134856 7.654856166e-06 -3.0606761599e-19 -0.00019331483757 1.417564414e-05 -1.417564414e-05
          -0.00018242323905 -7.5006505432e-07 -7.0721082314e-06 -0.00019654749471 1.8290689942e-06 1.8290689942e-06
          -0.00018242323905 7.0721082314e-06 -7.5006505432e-07 -0.00018129542413 1.1905655855e-05 -2.6531164847e-20
          -0.00018242323905 7.0721082314e-06 7.5006505432e-07 -0.00019654749471 1.8290689942e-06 -1.8290689942e-06
          -0.00022096657555 -1.4332212448e-05 1.4332212448e-05 -0.00021006263919 -1.3291069242e-05 2.1397924965e-06
          -0.00020916338495 -1.653926211e-05 5.3287133905e-20 -0.00021006263919 -1.3291069242e-05 -2.1397924965e-06
          -0.00022096657555 -1.4332212448e-05 -1.4332212448e-05 -0.00021006263919 -2.1397924965e-06 1.3291069242e-05
          -0.00022287608355 -1.438781845e-05 1.438781845e-05 -0.00021908514063 -7.3222979491e-06 -5.0853756044e-19
          -0.00022287608355 -1.438781845e-05 -1.438781845e-05 -0.00021006263919 -2.1397924965e-06 -1.3291069242e-05
          -0.00020916338495 1.1791083521e-19 1.653926211e-05 -0.00021908514063 6.9101161158e-19 7.3222979491e-06
          -0.00021374722439 5.8596161144e-19 1.2541935404e-19 -0.00021908514063 -2.3695180629e-19 -7.3222979491e-06
          -0.00020916338495 1.2470543168e-19 -1.653926211e-05 -0.00021006263919 2.1397924965e-06 1.3291069242e-05
          -0.00022287608355 1.438781845e-05 1.438781845e-05 -0.00021908514063 7.3222979491e-06 -1.6015626762e-19
          -0.00022287608355 1.438781845e-05 -1.438781845e-05 -0.00021006263919 2.1397924965e-06 -1.3291069242e-05
          -0.00022096657555 1.4332212448e-05 1.4332212448e-05 -0.00021006263919 1.3291069242e-05 2.1397924965e-06
          -0.00020916338495 1.653926211e-05 2.4611711378e-20 -0.00021006263919 1.3291069242e-05 -2.1397924965e-06
          -0.00022096657555 1.4332212448e-05 -1.4332212448e-05 -0.00024326090041 -1.8217346269e-05 1.8217346269e-05
          -0.00023426324042 -1.4893407019e-05 -1.0125807442e-07 -0.00023751373939 -1.9857711545e-05 1.9070623741e-19
          -0.00023426324042 -1.4893407019e-05 1.0125807442e-07 -0.00024326090041 -1.8217346269e-05 -1.8217346269e-05
          -0.00023426324042 1.0125807442e-07 1.4893407019e-05 -0.00023642904963 -4.3562085323e-06 4.3562085323e-06
          -0.00023814003604 -4.0312127511e-06 6.5416926407e-20 -0.00023642904963 -4.3562085323e-06 -4.3562085323e-06
          -0.00023426324042 1.0125807442e-07 -1.4893407019e-05 -0.00023751373939 1.2462646121e-19 1.9857711545e-05
          -0.00023814003604 3.1192647058e-19 4.0312127511e-06 -0.00023216961595 4.1871146811e-19 -4.9692829552e-19
          -0.00023814003604 -2.1680906713e-19 -4.0312127511e-06 -0.00023751373939 -1.8263962923e-19 -1.9857711545e-05
          -0.00023426324042 -1.0125807442e-07 1.4893407019e-05 -0.00023642904963 4.3562085323e-06 4.3562085323e-06
          -0.00023814003604 4.0312127511e-06 -2.5593528062e-19 -0.00023642904963 4.3562085323e-06 -4.3562085323e-06
          -0.00023426324042 -1.0125807442e-07 -1.4893407019e-05 -0.00024326090041 1.8217346269e-05 1.8217346269e-05
          -0.00023426324042 1.4893407019e-05 -1.0125807442e-07 -0.00023751373939 1.9857711545e-05 -1.0467083277e-19
          -0.00023426324042 1.4893407019e-05 1.0125807442e-07 -0.00024326090041 1.8217346269e-05 -1.8217346269e-05
          -0.00024436603767 -2.5366955001e-05 2.5366955001e-05 -0.00023122060288 -1.5358834252e-05 6.0984104122e-06
          -0.00023793444982 -1.5992490267e-05 -6.7262093093e-20 -0.00023122060288 -1.5358834252e-05 -6.0984104122e-06
          -0.00024436603767 -2.5366955001e-05 -2.5366955001e-05 -0.00023122060288 -6.0984104122e-06 1.5358834252e-05
          -0.00023605048789 1.2229347463e-06 -1.2229347463e-06 -0.00024073547608 5.39753851e-07 -4.175370563e-20
          -0.00023605048789 1.2229347463e-06 1.2229347463e-06 -0.00023122060288 -6.0984104122e-06 -1.5358834252e-05
          -0.00023793444982 -3.943386632e-19 1.5992490267e-05 -0.00024073547608 1.0399000801e-19 -5.39753851e-07
          -0.00023169662361 2.6991007374e-20 3.2435369671e-20 -0.00024073547608 3.766306918e-20 5.39753851e-07
          -0.00023793444982 -2.6603070451e-19 -1.5992490267e-05 -0.00023122060288 6.0984104122e-06 1.5358834252e-05
          -0.00023605048789 -1.2229347463e-06 -1.2229347463e-06 -0.00024073547608 -5.39753851e-07 -2.6145361365e-19
          -0.00023605048789 -1.2229347463e-06 1.2229347463e-06 -0.00023122060288 6.0984104122e-06 -1.5358834252e-05
          -0.00024436603767 2.5366955001e-05 2.5366955001e-05 -0.00023122060288 1.5358834252e-05 6.0984104122e-06
          -0.00023793444982 1.5992490267e-05 -4.3143902095e-19 -0.00023122060288 1.5358834252e-05 -6.0984104122e-06
          -0.00024436603767 2.5366955001e-05 -2.5366955001e-05 -0.00027159585894 -2.0496009638e-05 2.0496009638e-05
          -0.00025420809357 -1.3748964311e-05 6.6500618927e-06 -0.00026046113458 -1.2064448999e-05 -7.2427060178e-20
          -0.00025420809357 -1.3748964311e-05 -6.6500618927e-06 -0.00027159585894 -2.0496009638e-05 -2.0496009638e-05
          -0.00025420809357 -6.6500618927e-06 1.3748964311e-05 -0.00025160394696 5.0136766927e-06 -5.0136766927e-06
          -0.00025635211486 2.1834539535e-06 -4.118285034e-19 -0.00025160394696 5.0136766927e-06 5.0136766927e-06
          -0.00025420809357 -6.6500618927e-06 -1.3748964311e-05 -0.00026046113458 -2.0942696577e-19 1.2064448999e-05
          -0.00025635211486 -1.074028474e-19 -2.1834539535e-06 -0.00025299538995 -9.7866826335e-20 -3.5947301561e-19
          -0.00025635211486 -4.4645322558e-19 2.1834539535e-06 -0.00026046113458 -4.9109099522e-19 -1.2064448999e-05
          -0.00025420809357 6.6500618927e-06 1.3748964311e-05 -0.00025160394696 -5.0136766927e-06 -5.0136766927e-06
          -0.00025635211486 -2.1834539535e-06 1.7845404725e-22 -0.00025160394696 -5.0136766927e-06 5.0136766927e-06
          -0.00025420809357 6.6500618927e-06 -1.3748964311e-05 -0.00027159585894 2.0496009638e-05 2.0496009638e-05
          -0.00025420809357 1.3748964311e-05 6.6500618927e-06 -0.00026046113458 1.2064448999e-05 -2.0811387298e-19
          -0.00025420809357 1.3748964311e-05 -6.6500618927e-06 -0.00027159585894 2.0496009638e-05 -2.0496009638e-05
          -0.00029157863196 -2.1120385436e-05 2.1120385436e-05 -0.00027477447176 -1.8175534045e-05 1.1363148973e-05
          -0.0002776014249 -1.3739792327e-05 -2.5614340642e-19 -0.00027477447176 -1.8175534045e-05 -1.1363148973e-05
          -0.00029157863196 -2.1120385436e-05 -2.1120385436e-05 -0.00027477447176 -1.1363148973e-05 1.8175534045e-05
          -0.00027302376764 -2.0239135324e-06 2.0239135324e-06 -0.00027562633018 -2.8001939176e-06 1.2777324528e-19
          -0.00027302376764 -2.0239135324e-06 -2.0239135324e-06 -0.00027477447176 -1.1363148973e-05 -1.8175534045e-05
          -0.0002776014249 1.2616364038e-19 1.3739792327e-05 -0.00027562633018 5.9611557269e-20 2.8001939176e-06
          -0.00027210382074 -2.2131464877e-19 1.659594544e-20 -0.00027562633018 1.8212826996e-19 -2.8001939176e-06
          -0.0002776014249 -7.5133784574e-20 -1.3739792327e-05 -0.00027477447176 1.1363148973e-05 1.8175534045e-05
          -0.00027302376764 2.0239135324e-06 2.0239135324e-06 -0.00027562633018 2.8001939176e-06 -1.835749568e-19
          -0.00027302376764 2.0239135324e-06 -2.0239135324e-06 -0.00027477447176 1.1363148973e-05 -1.8175534045e-05
          -0.00029157863196 2.1120385436e-05 2.1120385436e-05 -0.00027477447176 1.8175534045e-05 1.1363148973e-05
          -0.0002776014249 1.3739792327e-05 -1.1562184357e-20 -0.00027477447176 1.8175534045e-05 -1.1363148973e-05
          -0.00029157863196 2.1120385436e-05 -2.1120385436e-05 -0.00031407809079 -2.116208699e-05 2.116208699e-05
          -0.00029937677298 -2.6094443314e-05 1.2171240089e-05 -0.00029858951805 -2.0913637428e-05 1.7786582835e-19
          -0.00029937677298 -2.6094443314e-05 -1.2171240089e-05 -0.00031407809079 -2.116208699e-05 -2.116208699e-05
          -0.00029937677298 -1.2171240089e-05 2.6094443314e-05 -0.00029533055838 -8.828400481e-06 8.828400481e-06
          -0.00029650518907 -8.0142672579e-06 -1.3325095703e-20 -0.00029533055838 -8.828400481e-06 -8.828400481e-06
          -0.00029937677298 -1.2171240089e-05 -2.6094443314e-05 -0.00029858951805 -2.900360483e-19 2.0913637428e-05
          -0.00029650518907 5.2257308645e-20 8.0142672579e-06 -0.00029600941941 -5.1496007117e-20 2.8785747397e-19
          -0.00029650518907 -2.5691729342e-19 -8.0142672579e-06 -0.00029858951805 4.5814509945e-19 -2.0913637428e-05
          -0.00029937677298 1.2171240089e-05 2.6094443314e-05 -0.00029533055838 8.828400481e-06 8.828400481e-06
          -0.00029650518907 8.0142672579e-06 3.1681972069e-19 -0.00029533055838 8.828400481e-06 -8.828400481e-06
          -0.00029937677298 1.2171240089e-05 -2.6094443314e-05 -0.00031407809079 2.116208699e-05 2.116208699e-05
          -0.00029937677298 2.6094443314e-05 1.2171240089e-05 -0.00029858951805 2.0913637428e-05 -2.7027016965e-19
          -0.00029937677298 2.6094443314e-05 -1.2171240089e-05 -0.00031407809079 2.116208699e-05 -2.116208699e-05
          -0.00032891174136 -2.2407741533e-05 2.2407741533e-05 -0.00031978893869 -3.0986269581e-05 1.2263891251e-05
          -0.00031775215767 -2.6036996402e-05 8.0829406317e-20 -0.00031978893869 -3.0986269581e-05 -1.2263891251e-05
          -0.00032891174136 -2.2407741533e-05 -2.2407741533e-05 -0.00031978893869 -1.2263891251e-05 3.0986269581e-05
          -0.00031551509204 -1.5434225165e-05 1.5434225165e-05 -0.00031584112832 -1.2338130005e-05 -1.2138307227e-19
          -0.00031551509204 -1.5434225165e-05 -1.5434225165e-05 -0.00031978893869 -1.2263891251e-05 -3.0986269581e-05
          -0.00031775215767 -4.7960919994e-19 2.6036996402e-05 -0.00031584112832 -1.9346403955e-19 1.2338130005e-05
          -0.00031679579161 6.2335261769e-20 2.3573148505e-19 -0.00031584112832 3.5426539612e-19 -1.2338130005e-05
          -0.00031775215767 4.4836341856e-19 -2.6036996402e-05 -0.00031978893869 1.2263891251e-05 3.0986269581e-05
          -0.00031551509204 1.5434225165e-05 1.5434225165e-05 -0.00031584112832 1.2338130005e-05 2.7847231445e-19
          -0.00031551509204 1.5434225165e-05 -1.5434225165e-05 -0.00031978893869 1.2263891251e-05 -3.0986269581e-05
          -0.00032891174136 2.2407741533e-05 2.2407741533e-05 -0.00031978893869 3.0986269581e-05 1.2263891251e-05
          -0.00031775215767 2.6036996402e-05 -5.0451912789e-19 -0.00031978893869 3.0986269581e-05 -1.2263891251e-05
          -0.00032891174136 2.2407741533e-05 -2.2407741533e-05 -0.00034637258525 -2.1652902636e-05 2.1652902636e-05
          -0.00034832399572 -2.9737286667e-05 9.078667129e-06 -0.0003474445383 -2.5991753149e-05 2.5681644325e-19
          -0.00034832399572 -2.9737286667e-05 -9.078667129e-06 -0.00034637258525 -2.1652902636e-05 -2.1652902636e-05
          -0.00034832399572 -9.078667129e-06 2.9737286667e-05 -0.00035102980805 -1.4844748789e-05 1.4844748789e-05
          -0.00035238004735 -1.1222945456e-05 3.4487107236e-19 -0.00035102980805 -1.4844748789e-05 -1.4844748789e-05
          -0.00034832399572 -9.078667129e-06 -2.9737286667e-05 -0.0003474445383 1.591248663e-19 2.5991753149e-05
          -0.00035238004735 -1.7061844315e-19 1.1222945456e-05 -0.00035558446088 -1.5195233983e-19 -5.8848291871e-19
          -0.00035238004735 3.3966549016e-19 -1.1222945456e-05 -0.0003474445383 2.8413042981e-19 -2.5991753149e-05
          -0.00034832399572 9.078667129e-06 2.9737286667e-05 -0.00035102980805 1.4844748789e-05 1.4844748789e-05
          -0.00035238004735 1.1222945456e-05 -2.3007125721e-19 -0.00035102980805 1.4844748789e-05 -1.4844748789e-05
          -0.00034832399572 9.078667129e-06 -2.9737286667e-05 -0.00034637258525 2.1652902636e-05 2.1652902636e-05
          -0.00034832399572 2.9737286667e-05 9.078667129e-06 -0.0003474445383 2.5991753149e-05 -2.6256628618e-19
          -0.00034832399572 2.9737286667e-05 -9.078667129e-06 -0.00034637258525 2.1652902636e-05 -2.1652902636e-05
          -0.0003591946768 -1.5935074916e-05 1.5935074916e-05 -0.00036755016978 -2.0114629627e-05 4.2924614398e-06
          -0.00036960351504 -1.850084674e-05 2.5911502924e-19 -0.00036755016978 -2.0114629627e-05 -4.2924614398e-06
          -0.0003591946768 -1.5935074916e-05 -1.5935074916e-05 -0.00036755016978 -4.2924614398e-06 2.0114629627e-05
          -0.00037182937068 -8.7458316607e-06 8.7458316607e-06 -0.00037522849495 -6.1068609156e-06 3.3053412415e-19
          -0.00037182937068 -8.7458316607e-06 -8.7458316607e-06 -0.00036755016978 -4.2924614398e-06 -2.0114629627e-05
          -0.00036960351504 -3.1893829089e-19 1.850084674e-05 -0.00037522849495 4.8682782691e-19 6.1068609156e-06
          -0.00037999076826 3.3910334006e-19 1.787092077e-19 -0.00037522849495 -2.423648737e-19 -6.1068609156e-06
          -0.00036960351504 -2.540880987e-19 -1.850084674e-05 -0.00036755016978 4.2924614398e-06 2.0114629627e-05
          -0.00037182937068 8.7458316607e-06 8.7458316607e-06 -0.00037522849495 6.1068609156e-06 1.5113578977e-19
          -0.00037182937068 8.7458316607e-06 -8.7458316607e-06 -0.00036755016978 4.2924614398e-06 -2.0114629627e-05
          -0.0003591946768 1.5935074916e-05 1.5935074916e-05 -0.00036755016978 2.0114629627e-05 4.2924614398e-06
          -0.00036960351504 1.850084674e-05 1.3604338141e-19 -0.00036755016978 2.0114629627e-05 -4.2924614398e-06
          -0.0003591946768 1.5935074916e-05 -1.5935074916e-05 -0.00036604007899 -7.5678078925e-06 7.5678078925e-06
          -0.00037673046705 -7.293959244e-06 1.8353819653e-07 -0.00038147465938 -7.649518809e-06 1.983734037e-19
          -0.00037673046705 -7.293959244e-06 -1.8353819653e-07 -0.00036604007899 -7.5678078925e-06 -7.5678078925e-06
          -0.00037673046705 -1.8353819653e-07 7.293959244e-06 -0.00038451778764 -1.381586005e-06 1.381586005e-06
          -0.00038984677512 -2.6186405607e-07 3.8603740377e-19 -0.00038451778764 -1.381586005e-06 -1.381586005e-06
          -0.00037673046705 -1.8353819653e-07 -7.293959244e-06 -0.00038147465938 4.304286804e-20 7.649518809e-06
          -0.00038984677512 2.3385009462e-19 2.6186405607e-07 -0.00039530768378 -1.0708734536e-19 3.060129445e-19
          -0.00038984677512 -8.64370768e-20 -2.6186405607e-07 -0.00038147465938 -9.7951709334e-20 -7.649518809e-06
          -0.00037673046705 1.8353819653e-07 7.293959244e-06 -0.00038451778764 1.381586005e-06 1.381586005e-06
          -0.00038984677512 2.6186405607e-07 -2.8750400897e-19 -0.00038451778764 1.381586005e-06 -1.381586005e-06
          -0.00037673046705 1.8353819653e-07 -7.293959244e-06 -0.00036604007899 7.5678078925e-06 7.5678078925e-06
          -0.00037673046705 7.293959244e-06 1.8353819653e-07 -0.00038147465938 7.649518809e-06 7.315671384e-20
          -0.00037673046705 7.293959244e-06 -1.8353819653e-07 -0.00036604007899 7.5678078925e-06 -7.5678078925e-06
          -0.00037218623529 4.5532976539e-06 -4.5532976539e-06 -0.00038081034412 7.7421942154e-06 -3.7412519224e-06
          -0.00038626078845 5.6684850146e-06 -6.4683662624e-21 -0.00038081034412 7.7421942154e-06 3.7412519224e-06
          -0.00037218623529 4.5532976539e-06 4.5532976539e-06 -0.00038081034412 3.7412519224e-06 -7.7421942154e-06