<?xml version="1.0"?>
<VTKFile type="UnstructuredGrid" version="0.1" byte_order="LittleEndian" compressor="vtkZLibDataCompressor">
  <UnstructuredGrid>
    <Piece NumberOfPoints="525" NumberOfCells="525">
      <PointData>
        <DataArray type="Float64" Name="Damage" format="ascii" RangeMin="0" RangeMax="0">
          0 0 0 0 0 0
          0 0 0 0 0 0
          0 0 0 0 0 0
          0 0 0 0 0 0
          0 0 0 0 0 0
          0 0 0 0 0 0
          0 0 0 0 0 0
          0 0 0 0 0 0
          0 0 0 0 0 0
          0 0 0 0 0 0
          0 0 0 0 0 0
          0 0 0 0 0 0
          0 0 0 0 0 0
          0 0 0 0 0 0
          0 0 0 0 0 0
          0 0 0 0 0 0
          0 0 0 0 0 0
          0 0 0 0 0 0
          0 0 0 0 0 0
          0 0 0 0 0 0
          0 0 0 0 0 0
          0 0 0 0 0 0
          0 0 0 0 0 0
          0 0 0 0 0 0
          0 0 0 0 0 0
          0 0 0 0 0 0
          0 0 0 0 0 0
          0 0 0 0 0 0
          0 0 0 0 0 0
          0 0 0 0 0 0
          0 0 0 0 0 0
          0 0 0 0 0 0
          0 0 0 0 0 0
          0 0 0 0 0 0
          0 0 0 0 0 0
          0 0 0 0 0 0
          0 0 0 0 0 0
          0 0 0 0 0 0
          0 0 0 0 0 0
          0 0 0 0 0 0
          0 0 0 0 0 0
          0 0 0 0 0 0
          0 0 0 0 0 0
          0 0 0 0 0 0
          0 0 0 0 0 0
          0 0 0 0 0 0
          0 0 0 0 0 0
          0 0 0 0 0 0
          0 0 0 0 0 0
          0 0 0 0 0 0
          0 0 0 0 0 0
          0 0 0 0 0 0
          0 0 0 0 0 0
          0 0 0 0 0 0
          0 0 0 0 0 0
          0 0 0 0 0 0
          0 0 0 0 0 0
          0 0 0 0 0 0
          0 0 0 0 0 0
          0 0 0 0 0 0
          0 0 0 0 0 0
          0 0 0 0 0 0
          0 0 0 0 0 0
          0 0 0 0 0 0
          0 0 0 0 0 0
          0 0 0 0 0 0
          0 0 0 0 0 0
          0 0 0 0 0 0
          0 0 0 0 0 0
          0 0 0 0 0 0
          0 0 0 0 0 0
          0 0 0 0 0 0
          0 0 0 0 0 0
          0 0 0 0 0 0
          0 0 0 0 0 0
          0 0 0 0 0 0
          0 0 0 0 0 0
          0 0 0 0 0 0
          0 0 0 0 0 0
          0 0 0 0 0 0
          0 0 0 0 0 0
          0 0 0 0 0 0
          0 0 0 0 0 0
          0 0 0 0 0 0
          0 0 0 0 0 0
          0 0 0 0 0 0
          0 0 0 0 0 0
          0 0 0
        </DataArray>
        <DataArray type="Float64" Name="Dilatation" format="ascii" RangeMin="-0.017781000765" RangeMax="0.0079466427448">
          -0.0031917433237 -0.0023681321999 -0.0050275921691 -0.0023681321999 -0.0031917433237 -0.0023681321999
          -0.0013748397715 -0.0021189005131 -0.0013748397715 -0.0023681321999 -0.0050275921691 -0.0021189005131
          -0.0031316456551 -0.0021189005131 -0.0050275921691 -0.0023681321999 -0.0013748397715 -0.0021189005131
          -0.0013748397715 -0.0023681321999 -0.0031917433237 -0.0023681321999 -0.0050275921691 -0.0023681321999
          -0.0031917433237 -0.002678283679 -0.0019121783047 -0.0030742420462 -0.0019121783047 -0.002678283679
          -0.0019121783047 -0.0022152575371 -0.0022219798975 -0.0022152575371 -0.0019121783047 -0.0030742420462
          -0.0022219798975 -0.002254212661 -0.0022219798975 -0.0030742420462 -0.0019121783047 -0.0022152575371
          -0.0022219798975 -0.0022152575371 -0.0019121783047 -0.002678283679 -0.0019121783047 -0.0030742420462
          -0.0019121783047 -0.002678283679 0.0015256915184 0.001144965493 0.00045566916607 0.001144965493
          0.0015256915184 0.001144965493 -0.00091790201877 -0.00084911869456 -0.00091790201877 0.001144965493
          0.00045566916607 -0.00084911869456 -0.00034041587727 -0.00084911869456 0.00045566916607 0.001144965493
          -0.00091790201877 -0.00084911869456 -0.00091790201877 0.001144965493 0.0015256915184 0.001144965493
          0.00045566916607 0.001144965493 0.0015256915184 0.0062772711198 0.0038503601173 0.003108252126
          0.0038503601173 0.0062772711198 0.0038503601173 0.0017338287163 0.0016008525927 0.0017338287163
          0.0038503601173 0.003108252126 0.0016008525927 0.0019797120745 0.0016008525927 0.003108252126
          0.0038503601173 0.0017338287163 0.0016008525927 0.0017338287163 0.0038503601173 0.0062772711198
          0.0038503601173 0.003108252126 0.0038503601173 0.0062772711198 0.0079448144382 0.0058696651649
          0.0053548325754 0.0058696651649 0.0079448144382 0.0058696651649 0.0049383892466 0.0044105450073
          0.0049383892466 0.0058696651649 0.0053548325754 0.0044105450073 0.0042099756904 0.0044105450073
          0.0053548325754 0.0058696651649 0.0049383892466 0.0044105450073 0.0049383892466 0.0058696651649
          0.0079448144382 0.0058696651649 0.0053548325754 0.0058696651649 0.0079448144382 0.004157772175
          0.0036854115395 0.003520825108 0.0036854115395 0.004157772175 0.0036854115395 0.0049201079161
          0.004164711153 0.0049201079161 0.0036854115395 0.003520825108 0.004164711153 0.0034023972425
          0.004164711153 0.003520825108 0.0036854115395 0.0049201079161 0.004164711153 0.0049201079161
          0.0036854115395 0.004157772175 0.0036854115395 0.003520825108 0.0036854115395 0.004157772175
          0.0021338969984 0.0030283212614 0.0026646548793 0.0030283212614 0.0021338969984 0.0030283212614
          0.0055166548501 0.0041870165227 0.0055166548501 0.0030283212614 0.0026646548793 0.0041870165227
          0.0025250211571 0.0041870165227 0.0026646548793 0.0030283212614 0.0055166548501 0.0041870165227
          0.0055166548501 0.0030283212614 0.0021338969984 0.0030283212614 0.0026646548793 0.0030283212614
          0.0021338969984 0.0015810939999 0.0033687595645 0.0028233002214 0.0033687595645 0.0015810939999
          0.0033687595645 0.0065312925384 0.0048884063946 0.0065312925384 0.0033687595645 0.0028233002214
          0.0048884063946 0.0027272547222 0.0048884063946 0.0028233002214 0.0033687595645 0.0065312925384
          0.0048884063946 0.0065312925384 0.0033687595645 0.0015810939999 0.0033687595645 0.0028233002214
          0.0033687595645 0.0015810939999 0.0026190804407 0.0043947432564 0.0036099485808 0.0043947432564
          0.0026190804407 0.0043947432564 0.0073324226123 0.0055691316594 0.0073324226123 0.0043947432564
          0.0036099485808 0.0055691316594 0.0032887994213 0.0055691316594 0.0036099485808 0.0043947432564
          0.0073324226123 0.0055691316594 0.0073324226123 0.0043947432564 0.0026190804407 0.0043947432564
          0.0036099485808 0.0043947432564 0.0026190804407 0.0044649183654 0.0057744192632 0.0047983682282
          0.0057744192632 0.0044649183654 0.0057744192632 0.0079466427448 0.006209021524 0.0079466427448
          0.0057744192632 0.0047983682282 0.006209021524 0.0040632166306 0.006209021524 0.0047983682282
          0.0057744192632 0.0079466427448 0.006209021524 0.0079466427448 0.0057744192632 0.0044649183654
          0.0057744192632 0.0047983682282 0.0057744192632 0.0044649183654 0.0054888880322 0.0062501304399
          0.0052484693885 0.0062501304399 0.0054888880322 0.0062501304399 0.0076197713976 0.0060901311277
          0.0076197713976 0.0062501304399 0.0052484693885 0.0060901311277 0.0042935106062 0.0060901311277
          0.0052484693885 0.0062501304399 0.0076197713976 0.0060901311277 0.0076197713976 0.0062501304399
          0.0054888880322 0.0062501304399 0.0052484693885 0.0062501304399 0.0054888880322 0.0053792374571
          0.005704667522 0.0048206121614 0.005704667522 0.0053792374571 0.005704667522 0.0064319545185
          0.0052181579585 0.0064319545185 0.005704667522 0.0048206121614 0.0052181579585 0.0038587263197
          0.0052181579585 0.0048206121614 0.005704667522 0.0064319545185 0.0052181579585 0.0064319545185
          0.005704667522 0.0053792374571 0.005704667522 0.0048206121614 0.005704667522 0.0053792374571
          0.0044521565784 0.0045268940311 0.0038422855378 0.0045268940311 0.0044521565784 0.0045268940311
          0.0048502972659 0.0039767148437 0.0048502972659 0.0045268940311 0.0038422855378 0.0039767148437
          0.0030382448872 0.0039767148437 0.0038422855378 0.0045268940311 0.0048502972659 0.0039767148437
          0.0048502972659 0.0045268940311 0.0044521565784 0.0045268940311 0.0038422855378 0.0045268940311
          0.0044521565784 0.0032009170188 0.0031668154789 0.0026941150166 0.0031668154789 0.0032009170188
          0.0031668154789 0.0032793892875 0.0027072905631 0.0032793892875 0.0031668154789 0.0026941150166
          0.0027072905631 0.0021137751339 0.0027072905631 0.0026941150166 0.0031668154789 0.0032793892875
          0.0027072905631 0.0032793892875 0.0031668154789 0.0032009170188 0.0031668154789 0.0026941150166
          0.0031668154789 0.0032009170188 0.0020294094151 0.001966767671 0.0016722174048 0.001966767671
          0.0020294094151 0.001966767671 0.0019876496859 0.0016454612417 0.0019876496859 0.001966767671
          0.0016722174048 0.0016454612417 0.0013000080675 0.0016454612417 0.0016722174048 0.001966767671
          0.0019876496859 0.0016454612417 0.0019876496859 0.001966767671 0.0020294094151 0.001966767671
          0.0016722174048 0.001966767671 0.0020294094151 0.0011559011489 0.0011052488988 0.00093678010811
          0.0011052488988 0.0011559011489 0.0011052488988 0.0010970818394 0.00090566765844 0.0010970818394
          0.0011052488988 0.00093678010811 0.00090566765844 0.00071755205073 0.00090566765844 0.00093678010811
          0.0011052488988 0.0010970818394 0.00090566765844 0.0010970818394 0.0011052488988 0.0011559011489
          0.0011052488988 0.00093678010811 0.0011052488988 0.0011559011489 0.0006736275859 0.00063222963245
          0.00053469228622 0.00063222963245 0.0006736275859 0.00063222963245 0.00060565182609 0.00049659660883
          0.00060565182609 0.00063222963245 0.00053469228622 0.00049659660883 0.00038891435847 0.00049659660883
          0.00053469228622 0.00063222963245 0.00060565182609 0.00049659660883 0.00060565182609 0.00063222963245
          0.0006736275859 0.00063222963245 0.00053469228622 0.00063222963245 0.0006736275859 0.00041014895087
          0.00038296360889 0.00034124038865 0.00038296360889 0.00041014895087 0.00038296360889 0.00036175424093
          0.00031423734084 0.00036175424093 0.00038296360889 0.00034124038865 0.00031423734084 0.00026451857453
          0.00031423734084 0.00034124038865 0.00038296360889 0.00036175424093 0.00031423734084 0.00036175424093
          0.00038296360889 0.00041014895087 0.00038296360889 0.00034124038865 0.00038296360889 0.00041014895087
          -0.017781000765 -0.014455608964 -0.01202523424 -0.014455608964 -0.017781000765 -0.014455608964
          -0.010728756894 -0.0098036779268 -0.010728756894 -0.014455608964 -0.01202523424 -0.0098036779268
          -0.011349576418 -0.0098036779268 -0.01202523424 -0.014455608964 -0.010728756894 -0.0098036779268
          -0.010728756894 -0.014455608964 -0.017781000765 -0.014455608964 -0.01202523424 -0.014455608964
          -0.017781000765 -0.0062961440549 -0.0055298361396 -0.0076451948147 -0.0055298361396 -0.0062961440549
          -0.0055298361396 -0.0024585301116 -0.0038346790117 -0.0024585301116 -0.0055298361396 -0.0076451948147
          -0.0038346790117 -0.004523877524 -0.0038346790117 -0.0076451948147 -0.0055298361396 -0.0024585301116
          -0.0038346790117 -0.0024585301116 -0.0055298361396 -0.0062961440549 -0.0055298361396 -0.0076451948147
          -0.0055298361396 -0.0062961440549 -0.0036531888885 -0.0034490117473 -0.0055536893177 -0.0034490117473
          -0.0036531888885 -0.0034490117473 -0.0026365427741 -0.0031955878567 -0.0026365427741 -0.0034490117473
          -0.0055536893177 -0.0031955878567 -0.0044596287676 -0.0031955878567 -0.0055536893177 -0.0034490117473
          -0.0026365427741 -0.0031955878567 -0.0026365427741 -0.0034490117473 -0.0036531888885 -0.0034490117473
          -0.0055536893177 -0.0034490117473 -0.0036531888885
        </DataArray>
        <DataArray type="Float64" Name="Displacement" NumberOfComponents="3" format="ascii" RangeMin="6.0153769922e-07" RangeMax="0.00021410723226">
          -0.00018873896073 5.3191959269e-08 -5.3191959269e-08 -0.00018089034886 -2.4729020007e-07 5.7305082322e-06
          -0.00017559365712 6.7304452895e-06 5.875855954e-20 -0.00018089034886 -2.4729020007e-07 -5.7305082322e-06
          -0.00018873896073 5.3191959269e-08 5.3191959269e-08 -0.00018089034886 -5.7305082322e-06 2.4729020007e-07
          -0.00016349956789 -5.6462212984e-06 5.6462212984e-06 -0.00015611420953 -7.5683546165e-06 -4.0072259478e-19
          -0.00016349956789 -5.6462212984e-06 -5.6462212984e-06 -0.00018089034886 -5.7305082322e-06 -2.4729020007e-07
          -0.00017559365712 5.5833768233e-19 -6.7304452895e-06 -0.00015611420953 -2.5050205071e-20 7.5683546165e-06
          -0.00014993389484 8.978765414e-20 -1.4833063257e-19 -0.00015611420953 -1.2760470068e-19 -7.5683546165e-06
          -0.00017559365712 -3.075182027e-19 6.7304452895e-06 -0.00018089034886 5.7305082322e-06 2.4729020007e-07
          -0.00016349956789 5.6462212984e-06 5.6462212984e-06 -0.00015611420953 7.5683546165e-06 -1.3305218068e-19
          -0.00016349956789 5.6462212984e-06 -5.6462212984e-06 -0.00018089034886 5.7305082322e-06 -2.4729020007e-07
          -0.00018873896073 -5.3191959269e-08 -5.3191959269e-08 -0.00018089034886 2.4729020007e-07 5.7305082322e-06
          -0.00017559365712 -6.7304452895e-06 -2.1430772174e-19 -0.00018089034886 2.4729020007e-07 -5.7305082322e-06
          -0.00018873896073 -5.3191959269e-08 5.3191959269e-08 -0.0001807698373 -2.284525972e-06 2.284525972e-06
          -0.00018206690593 -6.2945144213e-06 1.7670235548e-06 -0.00017964817121 -1.8675520531e-07 -7.9680254107e-20
          -0.00018206690593 -6.2945144213e-06 -1.7670235548e-06 -0.0001807698373 -2.284525972e-06 -2.284525972e-06
          -0.00018206690593 -1.7670235548e-06 6.2945144213e-06 -0.00017740566645 -4.4360074587e-06 4.4360074587e-06
          -0.00017265720808 -4.736536463e-06 -1.0211604065e-19 -0.00017740566645 -4.4360074587e-06 -4.4360074587e-06
          -0.00018206690593 -1.7670235548e-06 -6.2945144213e-06 -0.00017964817121 2.5998642272e-19 1.8675520531e-07
          -0.00017265720808 -1.731379366e-19 4.736536463e-06 -0.00016970327358 -1.8227635851e-19 -4.1219479705e-19
          -0.00017265720808 -2.2975674574e-19 -4.736536463e-06 -0.00017964817121 -1.4609039827e-19 -1.8675520531e-07
          -0.00018206690593 1.7670235548e-06 6.2945144213e-06 -0.00017740566645 4.4360074587e-06 4.4360074587e-06
          -0.00017265720808 4.736536463e-06 -1.9226584044e-19 -0.00017740566645 4.4360074587e-06 -4.4360074587e-06
          -0.00018206690593 1.7670235548e-06 -6.2945144213e-06 -0.0001807698373 2.284525972e-06 2.284525972e-06
          -0.00018206690593 6.2945144213e-06 1.7670235548e-06 -0.00017964817121 1.8675520531e-07 2.5515451099e-19
          -0.00018206690593 6.2945144213e-06 -1.7670235548e-06 -0.0001807698373 2.284525972e-06 -2.284525972e-06
          -0.00018033741123 -6.5995261251e-06 6.5995261251e-06 -0.00019575303808 -1.1727346233e-05 -6.6866859253e-07
          -0.00019719409341 -6.2018457592e-06 1.5123268322e-19 -0.00019575303808 -1.1727346233e-05 6.6866859253e-07
          -0.00018033741123 -6.5995261251e-06 -6.5995261251e-06 -0.00019575303808 6.6866859253e-07 1.1727346233e-05
          -0.00020861281347 -2.9431024043e-06 2.9431024043e-06 -0.0002086468722 -1.005046129e-06 3.456404253e-20
          -0.00020861281347 -2.9431024043e-06 -2.9431024043e-06 -0.00019575303808 6.6866859253e-07 -1.1727346233e-05
          -0.00019719409341 9.133438418e-20 6.2018457592e-06 -0.0002086468722 -3.0683755342e-19 1.005046129e-06
          -0.00021085946119 -3.2481008336e-19 7.0876721254e-20 -0.0002086468722 -3.3320600108e-19 -1.005046129e-06
          -0.00019719409341 -8.1984265875e-20 -6.2018457592e-06 -0.00019575303808 -6.6866859253e-07 1.1727346233e-05
          -0.00020861281347 2.9431024043e-06 2.9431024043e-06 -0.0002086468722 1.005046129e-06 -1.0628763473e-20
          -0.00020861281347 2.9431024043e-06 -2.9431024043e-06 -0.00019575303808 -6.6866859253e-07 -1.1727346233e-05
          -0.00018033741123 6.5995261251e-06 6.5995261251e-06 -0.00019575303808 1.1727346233e-05 -6.6866859253e-07
          -0.00019719409341 6.2018457592e-06 8.4858711055e-20 -0.00019575303808 1.1727346233e-05 6.6866859253e-07
          -0.00018033741123 6.5995261251e-06 -6.5995261251e-06 -0.00016684699153 -6.9513331646e-06 6.9513331646e-06
          -0.00018692825834 -6.6717705698e-06 -3.5400950538e-07 -0.00019332240425 -3.6176953658e-06 -2.0328402337e-20
          -0.00018692825834 -6.6717705698e-06 3.5400950538e-07 -0.00016684699153 -6.9513331646e-06 -6.9513331646e-06
          -0.00018692825834 3.5400950538e-07 6.6717705698e-06 -0.00020262045045 -6.9259960314e-07 6.9259960314e-07
          -0.00020796258727 7.827803418e-07 -6.5747040109e-20 -0.00020262045045 -6.9259960314e-07 -6.9259960314e-07
          -0.00018692825834 3.5400950538e-07 -6.6717705698e-06 -0.00019332240425 2.2472863947e-20 3.6176953658e-06
          -0.00020796258727 1.3241805675e-21 -7.827803418e-07 -0.00021410723226 1.31074559e-21 -3.8300112903e-20
          -0.00020796258727 -6.5602595207e-20 7.827803418e-07 -0.00019332240425 1.1687487342e-19 -3.6176953658e-06
          -0.00018692825834 -3.5400950538e-07 6.6717705698e-06 -0.00020262045045 6.9259960314e-07 6.9259960314e-07
          -0.00020796258727 -7.827803418e-07 -2.5532452444e-20 -0.00020262045045 6.9259960314e-07 -6.9259960314e-07
          -0.00018692825834 -3.5400950538e-07 -6.6717705698e-06 -0.00016684699153 6.9513331646e-06 6.9513331646e-06
          -0.00018692825834 6.6717705698e-06 -3.5400950538e-07 -0.00019332240425 3.6176953658e-06 -3.4826734971e-21
          -0.00018692825834 6.6717705698e-06 3.5400950538e-07 -0.00016684699153 6.9513331646e-06 -6.9513331646e-06
          -0.00015554950121 -1.0221768465e-06 1.0221768465e-06 -0.00017293407997 2.0577680782e-06 -2.7731044218e-06
          -0.00018119161091 1.6409930936e-06 -2.4355277656e-19 -0.00017293407997 2.0577680782e-06 2.7731044218e-06
          -0.00015554950121 -1.0221768465e-06 -1.0221768465e-06 -0.00017293407997 2.7731044218e-06 -2.0577680782e-06
          -0.00019018888067 3.5373573264e-06 -3.5373573264e-06 -0.0001979326011 3.936714741e-06 -1.9712710762e-19
          -0.00019018888067 3.5373573264e-06 3.5373573264e-06 -0.00017293407997 2.7731044218e-06 2.0577680782e-06
          -0.00018119161091 4.5296414847e-21 -1.6409930936e-06 -0.0001979326011 2.4451422278e-19 -3.936714741e-06
          -0.00020522687864 -1.2090083849e-19 -2.2295067661e-19 -0.0001979326011 2.6458925175e-19 3.936714741e-06
          -0.00018119161091 2.587318013e-19 1.6409930936e-06 -0.00017293407997 -2.7731044218e-06 -2.0577680782e-06
          -0.00019018888067 -3.5373573264e-06 -3.5373573264e-06 -0.0001979326011 -3.936714741e-06 3.9459560115e-20
          -0.00019018888067 -3.5373573264e-06 3.5373573264e-06 -0.00017293407997 -2.7731044218e-06 2.0577680782e-06
          -0.00015554950121 1.0221768465e-06 1.0221768465e-06 -0.00017293407997 -2.0577680782e-06 -2.7731044218e-06
          -0.00018119161091 -1.6409930936e-06 1.3209174345e-19 -0.00017293407997 -2.0577680782e-06 2.7731044218e-06
          -0.00015554950121 1.0221768465e-06 -1.0221768465e-06 -0.00015363216044 1.1349550703e-05 -1.1349550703e-05
          -0.00016455290532 1.6125293721e-05 -6.2017027654e-06 -0.00017134688449 1.2854689258e-05 5.7423403059e-21
          -0.00016455290532 1.6125293721e-05 6.2017027654e-06 -0.00015363216044 1.1349550703e-05 1.1349550703e-05
          -0.00016455290532 6.2017027654e-06 -1.6125293721e-05 -0.00017642981177 8.3595452888e-06 -8.3595452888e-06
          -0.00018289000123 7.7128212929e-06 -1.5364100919e-19 -0.00017642981177 8.3595452888e-06 8.3595452888e-06
          -0.00016455290532 6.2017027654e-06 1.6125293721e-05 -0.00017134688449 -7.0221414123e-20 -1.2854689258e-05
          -0.00018289000123 -5.745718982e-20 -7.7128212929e-06 -0.00018912082898 -1.6009446015e-19 -3.4961857265e-19
          -0.00018289000123 6.7417965146e-20 7.7128212929e-06 -0.00017134688449 -1.7553352263e-19 1.2854689258e-05
          -0.00016455290532 -6.2017027654e-06 -1.6125293721e-05 -0.00017642981177 -8.3595452888e-06 -8.3595452888e-06
          -0.00018289000123 -7.7128212929e-06 2.7869579843e-19 -0.00017642981177 -8.3595452888e-06 8.3595452888e-06
          -0.00016455290532 -6.2017027654e-06 1.6125293721e-05 -0.00015363216044 -1.1349550703e-05 -1.1349550703e-05
          -0.00016455290532 -1.6125293721e-05 -6.2017027654e-06 -0.00017134688449 -1.2854689258e-05 -2.4558262414e-19
          -0.00016455290532 -1.6125293721e-05 6.2017027654e-06 -0.00015363216044 -1.1349550703e-05 1.1349550703e-05
          -0.00014408523863 1.9781654768e-05 -1.9781654768e-05 -0.00014709687027 2.4272121159e-05 -7.2924586789e-06
          -0.00015061868163 1.9656710693e-05 4.1310029303e-19 -0.00014709687027 2.4272121159e-05 7.2924586789e-06
          -0.00014408523863 1.9781654768e-05 1.9781654768e-05 -0.00014709687027 7.2924586789e-06 -2.4272121159e-05
          -0.00015045607618 9.49231901e-06 -9.49231901e-06 -0.000153615155 7.9405227939e-06 -3.0212937509e-19
          -0.00015045607618 9.49231901e-06 9.49231901e-06 -0.00014709687027 7.2924586789e-06 2.4272121159e-05
          -0.00015061868163 -1.9058548161e-19 -1.9656710693e-05 -0.000153615155 -4.2806406818e-20 -7.9405227939e-06
          -0.00015609439085 -2.5743724741e-19 -1.7404595833e-19 -0.000153615155 2.6311255715e-20 7.9405227939e-06
          -0.00015061868163 8.9102582499e-20 1.9656710693e-05 -0.00014709687027 -7.2924586789e-06 -2.4272121159e-05
          -0.00015045607618 -9.49231901e-06 -9.49231901e-06 -0.000153615155 -7.9405227939e-06 1.7384656063e-19
          -0.00015045607618 -9.49231901e-06 9.49231901e-06 -0.00014709687027 -7.2924586789e-06 2.4272121159e-05
          -0.00014408523863 -1.9781654768e-05 -1.9781654768e-05 -0.00014709687027 -2.4272121159e-05 -7.2924586789e-06
          -0.00015061868163 -1.9656710693e-05 4.9731099045e-20 -0.00014709687027 -2.4272121159e-05 7.2924586789e-06
          -0.00014408523863 -1.9781654768e-05 1.9781654768e-05 -0.00013080292557 2.4842256439e-05 -2.4842256439e-05
          -0.00012850224545 2.8455317365e-05 -8.1691082692e-06 -0.00012868037904 2.3610176018e-05 -3.0079095558e-19
          -0.00012850224545 2.8455317365e-05 8.1691082692e-06 -0.00013080292557 2.4842256439e-05 2.4842256439e-05
          -0.00012850224545 8.1691082692e-06 -2.8455317365e-05 -0.00012650271164 1.0040960392e-05 -1.0040960392e-05
          -0.00012652567922 8.0566543976e-06 -1.2028801382e-19 -0.00012650271164 1.0040960392e-05 1.0040960392e-05
          -0.00012850224545 8.1691082692e-06 2.8455317365e-05 -0.00012868037904 -2.4055330943e-19 -2.3610176018e-05
          -0.00012652567922 9.3214923352e-20 -8.0566543976e-06 -0.00012605760143 -3.3124072234e-21 -1.5862689763e-19
          -0.00012652567922 2.6027131061e-19 8.0566543976e-06 -0.00012868037904 2.3883415993e-19 2.3610176018e-05
          -0.00012850224545 -8.1691082692e-06 -2.8455317365e-05 -0.00012650271164 -1.0040960392e-05 -1.0040960392e-05
          -0.00012652567922 -8.0566543976e-06 -2.2345641115e-19 -0.00012650271164 -1.0040960392e-05 1.0040960392e-05
          -0.00012850224545 -8.1691082692e-06 2.8455317365e-05 -0.00013080292557 -2.4842256439e-05 -2.4842256439e-05
          -0.00012850224545 -2.8455317365e-05 -8.1691082692e-06 -0.00012868037904 -2.3610176018e-05 -1.7075011007e-20
          -0.00012850224545 -2.8455317365e-05 8.1691082692e-06 -0.00013080292557 -2.4842256439e-05 2.4842256439e-05
          -0.00010915293959 2.4278737126e-05 -2.4278737126e-05 -0.00010457310631 2.7004783845e-05 -7.6071176316e-06
          -0.00010261549938 2.287832941e-05 -5.6156283537e-20 -0.00010457310631 2.7004783845e-05 7.6071176316e-06
          -0.00010915293959 2.4278737126e-05 2.4278737126e-05 -0.00010457310631 7.6071176316e-06 -2.7004783845e-05
          -0.00010020876959 9.0160671922e-06 -9.0160671922e-06 -9.8245163619e-05 7.0984004025e-06 -1.3140603298e-19
          -0.00010020876959 9.0160671922e-06 9.0160671922e-06 -0.00010457310631 7.6071176316e-06 2.7004783845e-05
          -0.00010261549938 7.7744073575e-20 -2.287832941e-05 -9.8245163619e-05 2.3235985476e-19 -7.0984004025e-06
          -9.6076506011e-05 9.5337788304e-20 -7.925280045e-20 -9.8245163619e-05 1.8361148943e-19 7.0984004025e-06
          -0.00010261549938 1.0107141817e-19 2.287832941e-05 -0.00010457310631 -7.6071176316e-06 -2.7004783845e-05
          -0.00010020876959 -9.0160671922e-06 -9.0160671922e-06 -9.8245163619e-05 -7.0984004025e-06 8.1160244666e-20
          -0.00010020876959 -9.0160671922e-06 9.0160671922e-06 -0.00010457310631 -7.6071176316e-06 2.7004783845e-05
          -0.00010915293959 -2.4278737126e-05 -2.4278737126e-05 -0.00010457310631 -2.7004783845e-05 -7.6071176316e-06
          -0.00010261549938 -2.287832941e-05 5.0019080859e-20 -0.00010457310631 -2.7004783845e-05 7.6071176316e-06
          -0.00010915293959 -2.4278737126e-05 2.4278737126e-05 -8.2858813743e-05 1.9979239383e-05 -1.9979239383e-05
          -7.814725685e-05 2.1820209299e-05 -6.1488405676e-06 -7.5392254104e-05 1.8749546915e-05 4.7946462046e-20
          -7.814725685e-05 2.1820209299e-05 6.1488405676e-06 -8.2858813743e-05 1.9979239383e-05 1.9979239383e-05
          -7.814725685e-05 6.1488405676e-06 -2.1820209299e-05 -7.3657878738e-05 7.0924344379e-06 -7.0924344379e-06
          -7.0999262857e-05 5.5247882299e-06 4.3202940539e-19 -7.3657878738e-05 7.0924344379e-06 7.0924344379e-06
          -7.814725685e-05 6.1488405676e-06 2.1820209299e-05 -7.5392254104e-05 3.0832727534e-20 -1.8749546915e-05
          -7.0999262857e-05 7.8744260044e-20 -5.5247882299e-06 -6.8341187703e-05 3.0899511874e-20 -4.5438790591e-19
          -7.0999262857e-05 8.5622204115e-20 5.5247882299e-06 -7.5392254104e-05 -9.6295855864e-20 1.8749546915e-05
          -7.814725685e-05 -6.1488405676e-06 -2.1820209299e-05 -7.3657878738e-05 -7.0924344379e-06 -7.0924344379e-06
          -7.0999262857e-05 -5.5247882299e-06 1.2452502049e-20 -7.3657878738e-05 -7.0924344379e-06 7.0924344379e-06
          -7.814725685e-05 -6.1488405676e-06 2.1820209299e-05 -8.2858813743e-05 -1.9979239383e-05 -1.9979239383e-05
          -7.814725685e-05 -2.1820209299e-05 -6.1488405676e-06 -7.5392254104e-05 -1.8749546915e-05 8.0959138569e-20
          -7.814725685e-05 -2.1820209299e-05 6.1488405676e-06 -8.2858813743e-05 -1.9979239383e-05 1.9979239383e-05
          -5.7637949494e-05 1.4501974454e-05 -1.4501974454e-05 -5.387394254e-05 1.5666909804e-05 -4.4436466562e-06
          -5.1270878523e-05 1.3613018895e-05 9.7552868538e-20 -5.387394254e-05 1.5666909804e-05 4.4436466562e-06
          -5.7637949494e-05 1.4501974454e-05 1.4501974454e-05 -5.387394254e-05 4.4436466562e-06 -1.5666909804e-05
          -5.0351731716e-05 5.0331195543e-06 -5.0331195543e-06 -4.7889130404e-05 3.9069772241e-06 9.649297412e-20
          -5.0351731716e-05 5.0331195543e-06 5.0331195543e-06 -5.387394254e-05 4.4436466562e-06 1.5666909804e-05
          -5.1270878523e-05 2.8614273309e-19 -1.3613018895e-05 -4.7889130404e-05 4.8874415262e-19 -3.9069772241e-06
          -4.5537987718e-05 5.9436878457e-20 -8.3942326543e-20 -4.7889130404e-05 -3.6906817602e-20 3.9069772241e-06
          -5.1270878523e-05 -8.2392778977e-20 1.3613018895e-05 -5.387394254e-05 -4.4436466562e-06 -1.5666909804e-05
          -5.0351731716e-05 -5.0331195543e-06 -5.0331195543e-06 -4.7889130404e-05 -3.9069772241e-06 -2.0067899958e-19
          -5.0351731716e-05 -5.0331195543e-06 5.0331195543e-06 -5.387394254e-05 -4.4436466562e-06 1.5666909804e-05
          -5.7637949494e-05 -1.4501974454e-05 -1.4501974454e-05 -5.387394254e-05 -1.5666909804e-05 -4.4436466562e-06
          -5.1270878523e-05 -1.3613018895e-05 -2.6721495091e-20 -5.387394254e-05 -1.5666909804e-05 4.4436466562e-06
          -5.7637949494e-05 -1.4501974454e-05 1.4501974454e-05 -3.6747819778e-05 9.4028178475e-06 -9.4028178475e-06
          -3.4145810637e-05 1.0093894228e-05 -2.878797794e-06 -3.2141581177e-05 8.8470804082e-06 2.4824533213e-19
          -3.4145810637e-05 1.0093894228e-05 2.878797794e-06 -3.6747819778e-05 9.4028178475e-06 9.4028178475e-06
          -3.4145810637e-05 2.878797794e-06 -1.0093894228e-05 -3.1775403742e-05 3.2225551155e-06 -3.2225551155e-06
          -2.9906614306e-05 2.4955664291e-06 -5.4928818902e-20 -3.1775403742e-05 3.2225551155e-06 3.2225551155e-06
          -3.4145810637e-05 2.878797794e-06 1.0093894228e-05 -3.2141581177e-05 2.6778620759e-19 -8.8470804082e-06
          -2.9906614306e-05 9.3684109863e-20 -2.4955664291e-06 -2.8168196718e-05 -5.2681589538e-20 9.1773515988e-20
          -2.9906614306e-05 6.5499832689e-20 2.4955664291e-06 -3.2141581177e-05 1.9539620284e-19 8.8470804082e-06
          -3.4145810637e-05 -2.878797794e-06 -1.0093894228e-05 -3.1775403742e-05 -3.2225551155e-06 -3.2225551155e-06
          -2.9906614306e-05 -2.4955664291e-06 -2.2840204585e-19 -3.1775403742e-05 -3.2225551155e-06 3.2225551155e-06
          -3.4145810637e-05 -2.878797794e-06 1.0093894228e-05 -3.6747819778e-05 -9.4028178475e-06 -9.4028178475e-06
          -3.4145810637e-05 -1.0093894228e-05 -2.878797794e-06 -3.2141581177e-05 -8.8470804082e-06 -3.4955411726e-19
          -3.4145810637e-05 -1.0093894228e-05 2.878797794e-06 -3.6747819778e-05 -9.4028178475e-06 9.4028178475e-06
          -2.1608549612e-05 5.5569252352e-06 -5.5569252352e-06 -2.0002333236e-05 5.9409593559e-06 -1.7046558201e-06
          -1.8662603028e-05 5.2433560197e-06 -7.4696826881e-20 -2.0002333236e-05 5.9409593559e-06 1.7046558201e-06
          -2.1608549612e-05 5.5569252352e-06 5.5569252352e-06 -2.0002333236e-05 1.7046558201e-06 -5.9409593559e-06
          -1.8586206078e-05 1.8927194778e-06 -1.8927194778e-06 -1.735183012e-05 1.4644785546e-06 -1.0170563699e-19
          -1.8586206078e-05 1.8927194778e-06 1.8927194778e-06 -2.0002333236e-05 1.7046558201e-06 5.9409593559e-06
          -1.8662603028e-05 7.3229158075e-20 -5.2433560197e-06 -1.735183012e-05 3.7690740674e-20 -1.4644785546e-06