<?xml version="1.0"?>
<VTKFile type="UnstructuredGrid" version="0.1" byte_order="LittleEndian" compressor="vtkZLibDataCompressor">
  <UnstructuredGrid>
    <Piece NumberOfPoints="525" NumberOfCells="525">
      <PointData>
        <DataArray type="Float64" Name="Damage" format="ascii" RangeMin="0" RangeMax="0">
          0 0 0 0 0 0
          0 0 0 0 0 0
          0 0 0 0 0 0
          0 0 0 0 0 0
          0 0 0 0 0 0
          0 0 0 0 0 0
          0 0 0 0 0 0
          0 0 0 0 0 0
          0 0 0 0 0 0
          0 0 0 0 0 0
          0 0 0 0 0 0
          0 0 0 0 0 0
          0 0 0 0 0 0
          0 0 0 0 0 0
          0 0 0 0 0 0
          0 0 0 0 0 0
          0 0 0 0 0 0
          0 0 0 0 0 0
          0 0 0 0 0 0
          0 0 0 0 0 0
          0 0 0 0 0 0
          0 0 0 0 0 0
          0 0 0 0 0 0
          0 0 0 0 0 0
          0 0 0 0 0 0
          0 0 0 0 0 0
          0 0 0 0 0 0
          0 0 0 0 0 0
          0 0 0 0 0 0
          0 0 0 0 0 0
          0 0 0 0 0 0
          0 0 0 0 0 0
          0 0 0 0 0 0
          0 0 0 0 0 0
          0 0 0 0 0 0
          0 0 0 0 0 0
          0 0 0 0 0 0
          0 0 0 0 0 0
          0 0 0 0 0 0
          0 0 0 0 0 0
          0 0 0 0 0 0
          0 0 0 0 0 0
          0 0 0 0 0 0
          0 0 0 0 0 0
          0 0 0 0 0 0
          0 0 0 0 0 0
          0 0 0 0 0 0
          0 0 0 0 0 0
          0 0 0 0 0 0
          0 0 0 0 0 0
          0 0 0 0 0 0
          0 0 0 0 0 0
          0 0 0 0 0 0
          0 0 0 0 0 0
          0 0 0 0 0 0
          0 0 0 0 0 0
          0 0 0 0 0 0
          0 0 0 0 0 0
          0 0 0 0 0 0
          0 0 0 0 0 0
          0 0 0 0 0 0
          0 0 0 0 0 0
          0 0 0 0 0 0
          0 0 0 0 0 0
          0 0 0 0 0 0
          0 0 0 0 0 0
          0 0 0 0 0 0
          0 0 0 0 0 0
          0 0 0 0 0 0
          0 0 0 0 0 0
          0 0 0 0 0 0
          0 0 0 0 0 0
          0 0 0 0 0 0
          0 0 0 0 0 0
          0 0 0 0 0 0
          0 0 0 0 0 0
          0 0 0 0 0 0
          0 0 0 0 0 0
          0 0 0 0 0 0
          0 0 0 0 0 0
          0 0 0 0 0 0
          0 0 0 0 0 0
          0 0 0 0 0 0
          0 0 0 0 0 0
          0 0 0 0 0 0
          0 0 0 0 0 0
          0 0 0 0 0 0
          0 0 0
        </DataArray>
        <DataArray type="Float64" Name="Dilatation" format="ascii" RangeMin="-0.011610882543" RangeMax="0.0096223845571">
          -0.0012761438505 -0.00068251414986 -0.0010858716632 -0.00068251414986 -0.0012761438505 -0.00068251414986
          0.0017980900436 5.3557907925e-05 0.0017980900436 -0.00068251414986 -0.0010858716632 5.3557907925e-05
          -0.0022241538269 5.3557907925e-05 -0.0010858716632 -0.00068251414986 0.0017980900436 5.3557907925e-05
          0.0017980900436 -0.00068251414986 -0.0012761438505 -0.00068251414986 -0.0010858716632 -0.00068251414986
          -0.0012761438505 -0.0036249091598 -0.0012449504347 -0.0016538475637 -0.0012449504347 -0.0036249091598
          -0.0012449504347 0.0031136542688 0.0013316637803 0.0031136542688 -0.0012449504347 -0.0016538475637
          0.0013316637803 -0.001037719571 0.0013316637803 -0.0016538475637 -0.0012449504347 0.0031136542688
          0.0013316637803 0.0031136542688 -0.0012449504347 -0.0036249091598 -0.0012449504347 -0.0016538475637
          -0.0012449504347 -0.0036249091598 -0.0018740049922 0.0010941721851 0.0006073246959 0.0010941721851
          -0.0018740049922 0.0010941721851 0.0055434686115 0.0038903676024 0.0055434686115 0.0010941721851
          0.0006073246959 0.0038903676024 0.0012778743073 0.0038903676024 0.0006073246959 0.0010941721851
          0.0055434686115 0.0038903676024 0.0055434686115 0.0010941721851 -0.0018740049922 0.0010941721851
          0.0006073246959 0.0010941721851 -0.0018740049922 0.004545077307 0.0058575415992 0.0046201060816
          0.0058575415992 0.004545077307 0.0058575415992 0.0081024035278 0.0060626106511 0.0081024035278
          0.0058575415992 0.0046201060816 0.0060626106511 0.0035253718939 0.0060626106511 0.0046201060816
          0.0058575415992 0.0081024035278 0.0060626106511 0.0081024035278 0.0058575415992 0.004545077307
          0.0058575415992 0.0046201060816 0.0058575415992 0.004545077307 0.0080936448598 0.0086331914824
          0.0072621313511 0.0086331914824 0.0080936448598 0.0086331914824 0.0096223845571 0.0077327067902
          0.0096223845571 0.0086331914824 0.0072621313511 0.0077327067902 0.0056749950286 0.0077327067902
          0.0072621313511 0.0086331914824 0.0096223845571 0.0077327067902 0.0096223845571 0.0086331914824
          0.0080936448598 0.0086331914824 0.0072621313511 0.0086331914824 0.0080936448598 0.0072674785428
          0.0072511060566 0.0061568215086 0.0072511060566 0.0072674785428 0.0072511060566 0.0075268666824
          0.0061834816481 0.0075268666824 0.0072511060566 0.0061568215086 0.0061834816481 0.0047940090114
          0.0061834816481 0.0061568215086 0.0072511060566 0.0075268666824 0.0061834816481 0.0075268666824
          0.0072511060566 0.0072674785428 0.0072511060566 0.0061568215086 0.0072511060566 0.0072674785428
          0.0052920824184 0.0050769561336 0.004319635601 0.0050769561336 0.0052920824184 0.0050769561336
          0.005010764332 0.0041508363555 0.005010764332 0.0050769561336 0.004319635601 0.0041508363555
          0.0033097808875 0.0041508363555 0.004319635601 0.0050769561336 0.005010764332 0.0041508363555
          0.005010764332 0.0050769561336 0.0052920824184 0.0050769561336 0.004319635601 0.0050769561336
          0.0052920824184 0.0031187223437 0.0029501082162 0.0025201453881 0.0029501082162 0.0031187223437
          0.0029501082162 0.0028623525198 0.0023918277486 0.0028623525198 0.0029501082162 0.0025201453881
          0.0023918277486 0.0019465670555 0.0023918277486 0.0025201453881 0.0029501082162 0.0028623525198
          0.0023918277486 0.0028623525198 0.0029501082162 0.0031187223437 0.0029501082162 0.0025201453881
          0.0029501082162 0.0031187223437 0.0015692742987 0.0014631863496 0.0012493116309 0.0014631863496
          0.0015692742987 0.0014631863496 0.0013986538271 0.0011723334739 0.0013986538271 0.0014631863496
          0.0012493116309 0.0011723334739 0.00096367664617 0.0011723334739 0.0012493116309 0.0014631863496
          0.0013986538271 0.0011723334739 0.0013986538271 0.0014631863496 0.0015692742987 0.0014631863496
          0.0012493116309 0.0014631863496 0.0015692742987 0.00070661862869 0.0006522043204 0.00055650237925
          0.0006522043204 0.00070661862869 0.0006522043204 0.00061622110064 0.00051726490657 0.00061622110064
          0.0006522043204 0.00055650237925 0.00051726490657 0.00042741348605 0.00051726490657 0.00055650237925
          0.0006522043204 0.00061622110064 0.00051726490657 0.00061622110064 0.0006522043204 0.00070661862869
          0.0006522043204 0.00055650237925 0.0006522043204 0.00070661862869 0.00028696926783 0.00026247188697
          0.00022378329785 0.00026247188697 0.00028696926783 0.00026247188697 0.00024621439295 0.0002070192628
          0.00024621439295 0.00026247188697 0.00022378329785 0.0002070192628 0.00017174398094 0.0002070192628
          0.00022378329785 0.00026247188697 0.00024621439295 0.0002070192628 0.00024621439295 0.00026247188697
          0.00028696926783 0.00026247188697 0.00022378329785 0.00026247188697 0.00028696926783 0.0001060961309
          9.6162317976e-05 8.179404431e-05 9.6162317976e-05 0.0001060961309 9.6162317976e-05 8.9614881253e-05
          7.5334726506e-05 8.9614881253e-05 9.6162317976e-05 8.179404431e-05 7.5334726506e-05 6.2688343904e-05
          7.5334726506e-05 8.179404431e-05 9.6162317976e-05 8.9614881253e-05 7.5334726506e-05 8.9614881253e-05
          9.6162317976e-05 0.0001060961309 9.6162317976e-05 8.179404431e-05 9.6162317976e-05 0.0001060961309
          3.6359572448e-05 3.2739892633e-05 2.7809107469e-05 3.2739892633e-05 3.6359572448e-05 3.2739892633e-05
          3.0333684468e-05 2.5501415116e-05 3.0333684468e-05 3.2739892633e-05 2.7809107469e-05 2.5501415116e-05
          2.1233609939e-05 2.5501415117e-05 2.7809107469e-05 3.2739892633e-05 3.0333684468e-05 2.5501415117e-05
          3.0333684468e-05 3.2739892633e-05 3.6359572448e-05 3.2739892633e-05 2.7809107469e-05 3.2739892633e-05
          3.6359572448e-05 1.1610929683e-05 1.0360423516e-05 8.78025338e-06 1.0360423516e-05 1.1610929683e-05
          1.0360423516e-05 9.5467908027e-06 8.0235734848e-06 9.5467908028e-06 1.0360423516e-05 8.78025338e-06
          8.0235734848e-06 6.6821135981e-06 8.0235734848e-06 8.78025338e-06 1.0360423516e-05 9.5467908027e-06
          8.0235734847e-06 9.5467908027e-06 1.0360423516e-05 1.1610929683e-05 1.0360423516e-05 8.78025338e-06
          1.0360423516e-05 1.1610929683e-05 3.465642682e-06 3.0669012832e-06 2.5915125348e-06 3.0669012832e-06
          3.4656426821e-06 3.0669012832e-06 2.8134318543e-06 2.3619538343e-06 2.8134318544e-06 3.0669012831e-06
          2.5915125347e-06 2.3619538344e-06 1.9684641307e-06 2.3619538344e-06 2.5915125347e-06 3.0669012832e-06
          2.8134318544e-06 2.3619538343e-06 2.8134318543e-06 3.0669012831e-06 3.465642682e-06 3.0669012831e-06
          2.5915125347e-06 3.0669012829e-06 3.4656426819e-06 1.0010775139e-06 8.7466559152e-07 7.3386413712e-07
          8.7466559152e-07 1.0010775137e-06 8.7466559138e-07 7.9447286133e-07 6.6346176604e-07 7.9447286132e-07
          8.7466559163e-07 7.3386413724e-07 6.6346176608e-07 5.5019786024e-07 6.6346176608e-07 7.3386413722e-07
          8.7466559147e-07 7.9447286129e-07 6.6346176608e-07 7.9447286133e-07 8.746655915e-07 1.0010775136e-06
          8.7466559155e-07 7.3386413717e-07 8.7466559148e-07 1.0010775138e-06 3.2894540574e-07 2.8859100483e-07
          2.4004087703e-07 2.8859100488e-07 3.2894540576e-07 2.8859100496e-07 2.6310488689e-07 2.1798803184e-07
          2.6310488701e-07 2.8859100476e-07 2.4004087705e-07 2.1798803182e-07 1.7767095663e-07 2.1798803187e-07
          2.400408771e-07 2.8859100481e-07 2.6310488686e-07 2.1798803182e-07 2.6310488693e-07 2.885910049e-07
          3.2894540574e-07 2.8859100488e-07 2.4004087697e-07 2.8859100487e-07 3.2894540531e-07 1.0422172456e-07
          9.1080515652e-08 7.7909554657e-08 9.108051572e-08 1.0422172459e-07 9.1080515544e-08 8.2771180741e-08
          7.0272587801e-08 8.2771180748e-08 9.1080515753e-08 7.7909554593e-08 7.0272587803e-08 5.8697137027e-08
          7.0272587793e-08 7.7909554727e-08 9.1080515623e-08 8.277118066e-08 7.0272587803e-08 8.2771180784e-08
          9.1080515764e-08 1.0422172464e-07 9.1080515835e-08 7.7909554698e-08 9.1080514909e-08 1.0422172467e-07
          -0.011610882543 -0.0094941797069 -0.0071958470856 -0.0094941797069 -0.011610882543 -0.0094941797069
          -0.0071498363579 -0.0046348036409 -0.0071498363579 -0.0094941797069 -0.0071958470856 -0.0046348036409
          -0.0027796224841 -0.0046348036409 -0.0071958470856 -0.0094941797069 -0.0071498363579 -0.0046348036409
          -0.0071498363579 -0.0094941797069 -0.011610882543 -0.0094941797069 -0.0071958470856 -0.0094941797069
          -0.011610882543 -0.0033307537013 -0.0014721909476 -0.0014108738362 -0.0014721909476 -0.0033307537013
          -0.0014721909476 -0.00018273515253 -0.0014141351128 -0.00018273515253 -0.0014721909476 -0.0014108738362
          -0.0014141351128 -0.0028760603717 -0.0014141351128 -0.0014108738362 -0.0014721909476 -0.00018273515253
          -0.0014141351128 -0.00018273515253 -0.0014721909476 -0.0033307537013 -0.0014721909476 -0.0014108738362
          -0.0014721909476 -0.0033307537013 -0.0027547526004 -0.0021941108741 -0.0021817989104 -0.0021941108741
          -0.0027547526004 -0.0021941108741 -0.00012912971876 -0.0015362649642 -0.00012912971876 -0.0021941108741
          -0.0021817989104 -0.0015362649642 -0.0032975212037 -0.0015362649642 -0.0021817989104 -0.0021941108741
          -0.00012912971876 -0.0015362649642 -0.00012912971876 -0.0021941108741 -0.0027547526004 -0.0021941108741
          -0.0021817989104 -0.0021941108741 -0.0027547526004
        </DataArray>
        <DataArray type="Float64" Name="Displacement" NumberOfComponents="3" format="ascii" RangeMin="1.9562448283e-11" RangeMax="0.00019631781344">
          -0.00016403882903 2.4368086095e-05 -2.4368086095e-05 -0.0001567737902 2.924462551e-05 -7.9712467111e-06
          -0.00015806542862 2.2554390396e-05 6.5637976883e-20 -0.0001567737902 2.924462551e-05 7.9712467111e-06
          -0.00016403882903 2.4368086095e-05 2.4368086095e-05 -0.0001567737902 7.9712467111e-06 -2.924462551e-05
          -0.00014805014137 1.0504863939e-05 -1.0504863939e-05 -0.00014853478042 7.7914092958e-06 -1.8228815093e-19
          -0.00014805014137 1.0504863939e-05 1.0504863939e-05 -0.0001567737902 7.9712467111e-06 2.924462551e-05
          -0.00015806542862 2.6978975457e-19 -2.2554390396e-05 -0.00014853478042 -1.5184381139e-19 -7.7914092958e-06
          -0.00014878906022 -3.600140544e-20 -2.0533698669e-19 -0.00014853478042 -2.6686280606e-19 7.7914092958e-06
          -0.00015806542862 5.5704043795e-20 2.2554390396e-05 -0.0001567737902 -7.9712467111e-06 -2.924462551e-05
          -0.00014805014137 -1.0504863939e-05 -1.0504863939e-05 -0.00014853478042 -7.7914092958e-06 -3.5697548804e-19
          -0.00014805014137 -1.0504863939e-05 1.0504863939e-05 -0.0001567737902 -7.9712467111e-06 2.924462551e-05
          -0.00016403882903 -2.4368086095e-05 -2.4368086095e-05 -0.0001567737902 -2.924462551e-05 -7.9712467111e-06
          -0.00015806542862 -2.2554390396e-05 -1.8454589336e-19 -0.0001567737902 -2.924462551e-05 7.9712467111e-06
          -0.00016403882903 -2.4368086095e-05 2.4368086095e-05 -0.00013980412273 3.4582212177e-05 -3.4582212177e-05
          -0.00013187250297 3.8996261414e-05 -1.1280740404e-05 -0.00012928815052 3.3073832215e-05 -2.336393212e-19
          -0.00013187250297 3.8996261414e-05 1.1280740404e-05 -0.00013980412273 3.4582212177e-05 3.4582212177e-05
          -0.00013187250297 1.1280740404e-05 -3.8996261414e-05 -0.00012235541116 1.3336093509e-05 -1.3336093509e-05
          -0.00011902070096 1.1017679415e-05 -6.5208763101e-20 -0.00012235541116 1.3336093509e-05 1.3336093509e-05
          -0.00013187250297 1.1280740404e-05 3.8996261414e-05 -0.00012928815052 4.5594433673e-19 -3.3073832215e-05
          -0.00011902070096 -1.5488688701e-19 -1.1017679415e-05 -0.00011643570742 -3.6223647438e-19 1.3596505866e-19
          -0.00011902070096 -2.0223857535e-19 1.1017679415e-05 -0.00012928815052 -8.0593098853e-21 3.3073832215e-05
          -0.00013187250297 -1.1280740404e-05 -3.8996261414e-05 -0.00012235541116 -1.3336093509e-05 -1.3336093509e-05
          -0.00011902070096 -1.1017679415e-05 3.3313001814e-20 -0.00012235541116 -1.3336093509e-05 1.3336093509e-05
          -0.00013187250297 -1.1280740404e-05 3.8996261414e-05 -0.00013980412273 -3.4582212177e-05 -3.4582212177e-05
          -0.00013187250297 -3.8996261414e-05 -1.1280740404e-05 -0.00012928815052 -3.3073832215e-05 2.5208309947e-19
          -0.00013187250297 -3.8996261414e-05 1.1280740404e-05 -0.00013980412273 -3.4582212177e-05 3.4582212177e-05
          -0.00012250081459 3.5506244007e-05 -3.5506244007e-05 -0.00011765763278 3.8393924271e-05 -1.172601514e-05
          -0.00011366702302 3.3401591692e-05 1.3970985397e-19 -0.00011765763278 3.8393924271e-05 1.172601514e-05
          -0.00012250081459 3.5506244007e-05 3.5506244007e-05 -0.00011765763278 1.172601514e-05 -3.8393924271e-05
          -0.00011152003747 1.2965811859e-05 -1.2965811859e-05 -0.00010715807321 1.0250781396e-05 1.1378948341e-19
          -0.00011152003747 1.2965811859e-05 1.2965811859e-05 -0.00011765763278 1.172601514e-05 3.8393924271e-05
          -0.00011366702302 -1.8636528614e-19 -3.3401591692e-05 -0.00010715807321 1.2462895433e-19 -1.0250781396e-05
          -0.00010278635779 -1.2935181441e-19 -2.3625313039e-19 -0.00010715807321 -2.4621439985e-20 1.0250781396e-05
          -0.00011366702302 7.9840802897e-21 3.3401591692e-05 -0.00011765763278 -1.172601514e-05 -3.8393924271e-05
          -0.00011152003747 -1.2965811859e-05 -1.2965811859e-05 -0.00010715807321 -1.0250781396e-05 -1.2169666967e-20
          -0.00011152003747 -1.2965811859e-05 1.2965811859e-05 -0.00011765763278 -1.172601514e-05 3.8393924271e-05
          -0.00012250081459 -3.5506244007e-05 -3.5506244007e-05 -0.00011765763278 -3.8393924271e-05 -1.172601514e-05
          -0.00011366702302 -3.3401591692e-05 -4.5649093581e-20 -0.00011765763278 -3.8393924271e-05 1.172601514e-05
          -0.00012250081459 -3.5506244007e-05 3.5506244007e-05 -8.6090188767e-05 2.4418773241e-05 -2.4418773241e-05
          -8.012057318e-05 2.6092791553e-05 -7.6489143804e-06 -7.521298829e-05 2.2908792433e-05 2.8042157126e-19
          -8.012057318e-05 2.6092791553e-05 7.6489143804e-06 -8.6090188767e-05 2.4418773241e-05 2.4418773241e-05
          -8.012057318e-05 7.6489143804e-06 -2.6092791553e-05 -7.3305033136e-05 8.3983370947e-06 -8.3983370947e-06
          -6.8342405843e-05 6.6493370395e-06 1.4264885675e-20 -7.3305033136e-05 8.3983370947e-06 8.3983370947e-06
          -8.012057318e-05 7.6489143804e-06 2.6092791553e-05 -7.521298829e-05 1.7908265212e-19 -2.2908792433e-05
          -6.8342405843e-05 5.0891076506e-19 -6.6493370395e-06 -6.3711050239e-05 5.4205927431e-20 -4.3555377859e-19
          -6.8342405843e-05 4.6270277556e-19 6.6493370395e-06 -7.521298829e-05 -1.4812177307e-19 2.2908792433e-05
          -8.012057318e-05 -7.6489143804e-06 -2.6092791553e-05 -7.3305033136e-05 -8.3983370947e-06 -8.3983370947e-06
          -6.8342405843e-05 -6.6493370395e-06 -2.8956890177e-21 -7.3305033136e-05 -8.3983370947e-06 8.3983370947e-06
          -8.012057318e-05 -7.6489143804e-06 2.6092791553e-05 -8.6090188767e-05 -2.4418773241e-05 -2.4418773241e-05
          -8.012057318e-05 -2.6092791553e-05 -7.6489143804e-06 -7.521298829e-05 -2.2908792433e-05 -8.1965400978e-20
          -8.012057318e-05 -2.6092791553e-05 7.6489143804e-06 -8.6090188767e-05 -2.4418773241e-05 2.4418773241e-05
          -5.2027349638e-05 1.4555468114e-05 -1.4555468114e-05 -4.841989154e-05 1.5288251561e-05 -4.658660468e-06
          -4.4871291214e-05 1.3476552447e-05 -1.3456358085e-19 -4.841989154e-05 1.5288251561e-05 4.658660468e-06
          -5.2027349638e-05 1.4555468114e-05 1.4555468114e-05 -4.841989154e-05 4.658660468e-06 -1.5288251561e-05
          -4.4724517583e-05 4.9968649407e-06 -4.9968649407e-06 -4.1274318014e-05 3.9423998222e-06 -1.3261146529e-19
          -4.4724517583e-05 4.9968649407e-06 4.9968649407e-06 -4.841989154e-05 4.658660468e-06 1.5288251561e-05
          -4.4871291214e-05 -1.6459280245e-19 -1.3476552447e-05 -4.1274318014e-05 3.9053704784e-19 -3.9423998222e-06
          -3.8197238993e-05 -6.5822787509e-20 1.4573466295e-20 -4.1274318014e-05 -6.1661180569e-20 3.9423998222e-06
          -4.4871291214e-05 2.1334693685e-19 1.3476552447e-05 -4.841989154e-05 -4.658660468e-06 -1.5288251561e-05
          -4.4724517583e-05 -4.9968649407e-06 -4.9968649407e-06 -4.1274318014e-05 -3.9423998222e-06 2.834436857e-19
          -4.4724517583e-05 -4.9968649407e-06 4.9968649407e-06 -4.841989154e-05 -4.658660468e-06 1.5288251561e-05
          -5.2027349638e-05 -1.4555468114e-05 -1.4555468114e-05 -4.841989154e-05 -1.5288251561e-05 -4.658660468e-06
          -4.4871291214e-05 -1.3476552447e-05 1.6300362377e-20 -4.841989154e-05 -1.5288251561e-05 4.658660468e-06
          -5.2027349638e-05 -1.4555468114e-05 1.4555468114e-05 -2.8043305611e-05 7.5589580835e-06 -7.5589580835e-06
          -2.6143388773e-05 8.0206299083e-06 -2.4278500389e-06 -2.4023406359e-05 7.1852639364e-06 7.457253824e-20
          -2.6143388773e-05 8.0206299083e-06 2.4278500389e-06 -2.8043305611e-05 7.5589580835e-06 7.5589580835e-06
          -2.6143388773e-05 2.4278500389e-06 -8.0206299083e-06 -2.4391108022e-05 2.6288774599e-06 -2.6288774599e-06
          -2.2387692834e-05 2.0995073094e-06 -9.9952918152e-20 -2.4391108022e-05 2.6288774599e-06 2.6288774599e-06
          -2.6143388773e-05 2.4278500389e-06 8.0206299083e-06 -2.4023406359e-05 -2.1995065998e-19 -7.1852639364e-06
          -2.2387692834e-05 -1.4620974064e-20 -2.0995073094e-06 -2.0690723041e-05 -1.4414135007e-19 -2.6768000907e-19
          -2.2387692834e-05 -3.6248065457e-20 2.0995073094e-06 -2.4023406359e-05 -9.1693810417e-20 7.1852639364e-06
          -2.6143388773e-05 -2.4278500389e-06 -8.0206299083e-06 -2.4391108022e-05 -2.6288774599e-06 -2.6288774599e-06
          -2.2387692834e-05 -2.0995073094e-06 -4.1687965504e-20 -2.4391108022e-05 -2.6288774599e-06 2.6288774599e-06
          -2.6143388773e-05 -2.4278500389e-06 8.0206299083e-06 -2.8043305611e-05 -7.5589580835e-06 -7.5589580835e-06
          -2.6143388773e-05 -8.0206299083e-06 -2.4278500389e-06 -2.4023406359e-05 -7.1852639364e-06 -2.0534497253e-19
          -2.6143388773e-05 -8.0206299083e-06 2.4278500389e-06 -2.8043305611e-05 -7.5589580835e-06 7.5589580835e-06
          -1.3030847245e-05 3.3004102962e-06 -3.3004102962e-06 -1.2079014046e-05 3.4826700202e-06 -1.0317740224e-06
          -1.0990261323e-05 3.1247375064e-06 -7.5040508047e-20 -1.2079014046e-05 3.4826700202e-06 1.0317740224e-06
          -1.3030847245e-05 3.3004102962e-06 3.3004102962e-06 -1.2079014046e-05 1.0317740224e-06 -3.4826700202e-06
          -1.1255267933e-05 1.1143724819e-06 -1.1143724819e-06 -1.0259452312e-05 8.6344353417e-07 2.0277178189e-21
          -1.1255267933e-05 1.1143724819e-06 1.1143724819e-06 -1.2079014046e-05 1.0317740224e-06 3.4826700202e-06
          -1.0990261323e-05 -1.714380443e-19 -3.1247375064e-06 -1.0259452312e-05 -1.7055287174e-20 -8.6344353417e-07
          -9.4140714126e-06 -1.1014887632e-19 -3.5822199842e-20 -1.0259452312e-05 -4.7014088075e-20 8.6344353417e-07
          -1.0990261323e-05 1.1407661424e-19 3.1247375064e-06 -1.2079014046e-05 -1.0317740224e-06 -3.4826700202e-06
          -1.1255267933e-05 -1.1143724819e-06 -1.1143724819e-06 -1.0259452312e-05 -8.6344353417e-07 -9.4877995369e-20
          -1.1255267933e-05 -1.1143724819e-06 1.1143724819e-06 -1.2079014046e-05 -1.0317740224e-06 3.4826700202e-06
          -1.3030847245e-05 -3.3004102962e-06 -3.3004102962e-06 -1.2079014046e-05 -3.4826700202e-06 -1.0317740224e-06
          -1.0990261323e-05 -3.1247375064e-06 -6.6387506945e-20 -1.2079014046e-05 -3.4826700202e-06 1.0317740224e-06
          -1.3030847245e-05 -3.3004102962e-06 3.3004102962e-06 -5.6048515053e-06 1.3816605733e-06 -1.3816605733e-06
          -5.1700022192e-06 1.464101755e-06 -4.3664601191e-07 -4.6763430877e-06 1.3231921932e-06 -2.8943697633e-19
          -5.1700022192e-06 1.464101755e-06 4.3664601191e-07 -5.6048515053e-06 1.3816605733e-06 1.3816605733e-06
          -5.1700022192e-06 4.3664601191e-07 -1.464101755e-06 -4.8294330101e-06 4.7208222811e-07 -4.7208222811e-07
          -4.3883950243e-06 3.6750429885e-07 -1.7096589417e-19 -4.8294330101e-06 4.7208222811e-07 4.7208222811e-07
          -5.1700022192e-06 4.3664601191e-07 1.464101755e-06 -4.6763430877e-06 -4.0227286631e-19 -1.3231921932e-06
          -4.3883950243e-06 -2.0046326501e-19 -3.6750429885e-07 -4.0131152734e-06 1.0981836101e-20 4.0528733157e-19
          -4.3883950243e-06 1.0474120791e-19 3.6750429885e-07 -4.6763430877e-06 3.0696163262e-19 1.3231921932e-06
          -5.1700022192e-06 -4.3664601191e-07 -1.464101755e-06 -4.8294330101e-06 -4.7208222811e-07 -4.7208222811e-07
          -4.3883950243e-06 -3.6750429885e-07 3.4490753011e-19 -4.8294330101e-06 -4.7208222811e-07 4.7208222811e-07
          -5.1700022192e-06 -4.3664601191e-07 1.464101755e-06 -5.6048515053e-06 -1.3816605733e-06 -1.3816605733e-06
          -5.1700022192e-06 -1.464101755e-06 -4.3664601191e-07 -4.6763430877e-06 -1.3231921932e-06 2.9736708469e-19
          -5.1700022192e-06 -1.464101755e-06 4.3664601191e-07 -5.6048515053e-06 -1.3816605733e-06 1.3816605733e-06
          -2.1789396776e-06 5.0833470832e-07 -5.0833470832e-07 -2.0003855728e-06 5.4116167076e-07 -1.6068364693e-07
          -1.7976672953e-06 4.917384972e-07 6.6793393526e-20 -2.0003855728e-06 5.4116167076e-07 1.6068364693e-07
          -2.1789396776e-06 5.0833470832e-07 5.0833470832e-07 -2.0003855728e-06 1.6068364693e-07 -5.4116167076e-07
          -1.8764304567e-06 1.7492394948e-07 -1.7492394948e-07 -1.7002837902e-06 1.3523907539e-07 -2.622135553e-20
          -1.8764304567e-06 1.7492394948e-07 1.7492394948e-07 -2.0003855728e-06 1.6068364693e-07 5.4116167076e-07
          -1.7976672953e-06 8.6323494271e-20 -4.917384972e-07 -1.7002837902e-06 -3.9241036417e-19 -1.3523907539e-07
          -1.555627244e-06 2.3216238231e-19 -6.9324806381e-20 -1.7002837902e-06 2.1917983681e-21 1.3523907539e-07
          -1.7976672953e-06 1.9147785974e-20 4.917384972e-07 -2.0003855728e-06 -1.6068364693e-07 -5.4116167076e-07
          -1.8764304567e-06 -1.7492394948e-07 -1.7492394948e-07 -1.7002837902e-06 -1.3523907539e-07 -3.8328251179e-19
          -1.8764304567e-06 -1.7492394948e-07 1.7492394948e-07 -2.0003855728e-06 -1.6068364693e-07 5.4116167076e-07
          -2.1789396776e-06 -5.0833470832e-07 -5.0833470832e-07 -2.0003855728e-06 -5.4116167076e-07 -1.6068364693e-07
          -1.7976672953e-06 -4.917384972e-07 2.9250220419e-20 -2.0003855728e-06 -5.4116167076e-07 1.6068364693e-07
          -2.1789396776e-06 -5.0833470832e-07 5.0833470832e-07 -7.7450695496e-07 1.7418061956e-07 -1.7418061956e-07
          -7.0863840832e-07 1.8495856524e-07 -5.4049308789e-08 -6.3326733225e-07 1.6826827343e-07 5.4078928668e-19
          -7.0863840832e-07 1.8495856524e-07 5.4049308789e-08 -7.7450695496e-07 1.7418061955e-07 1.7418061956e-07
          -7.0863840832e-07 5.4049308789e-08 -1.8495856524e-07 -6.6371463379e-07 5.8755732514e-08 -5.8755732513e-08
          -5.9880543387e-07 4.4698987543e-08 9.8771943492e-20 -6.6371463379e-07 5.8755732514e-08 5.8755732514e-08
          -7.0863840832e-07 5.4049308789e-08 1.8495856524e-07 -6.3326733225e-07 1.260012252e-19 -1.6826827343e-07
          -5.9880543387e-07 1.596288738e-19 -4.4698987543e-08 -5.447922101e-07 2.9202125539e-20 -1.6974069441e-19
          -5.9880543387e-07 3.2193741735e-19 4.4698987543e-08 -6.3326733225e-07 4.3730793087e-20 1.6826827343e-07
          -7.0863840832e-07 -5.4049308789e-08 -1.8495856524e-07 -6.6371463379e-07 -5.8755732514e-08 -5.8755732514e-08
          -5.9880543387e-07 -4.4698987543e-08 1.2502284673e-20 -6.6371463379e-07 -5.8755732513e-08 5.8755732514e-08
          -7.0863840832e-07 -5.4049308789e-08 1.8495856524e-07 -7.7450695496e-07 -1.7418061956e-07 -1.7418061956e-07
          -7.0863840832e-07 -1.8495856524e-07 -5.4049308789e-08 -6.3326733225e-07 -1.6826827343e-07 5.6270160383e-20
          -7.0863840832e-07 -1.8495856524e-07 5.4049308789e-08 -7.7450695496e-07 -1.7418061956e-07 1.7418061956e-07
          -2.5965822616e-07 5.6074027027e-08 -5.6074027027e-08 -2.3561016133e-07 5.9822645849e-08 -1.7418506909e-08
          -2.0955857385e-07 5.4662782401e-08 -1.084646855e-19 -2.3561016133e-07 5.9822645849e-08 1.7418506909e-08
          -2.5965822616e-07 5.6074027028e-08 5.6074027028e-08 -2.3561016133e-07 1.7418506909e-08 -5.9822645849e-08
          -2.2048481256e-07 1.9045073907e-08 -1.9045073907e-08 -1.9855702516e-07 1.4436450308e-08 1.091048267e-20
          -2.2048481256e-07 1.9045073907e-08 1.9045073907e-08 -2.3561016133e-07 1.7418506909e-08 5.9822645849e-08
          -2.0955857385e-07 -8.4349288968e-20 -5.46627824e-08 -1.9855702516e-07 -6.2675870513e-20 -1.4436450308e-08
          -1.8017961799e-07 -9.0674798044e-20 -1.4698537113e-19 -1.9855702516e-07 -4.9031604042e-20 1.4436450307e-08
          -2.0955857385e-07 -2.9766441611e-19 5.4662782401e-08 -2.3561016133e-07 -1.7418506909e-08 -5.9822645849e-08
          -2.2048481256e-07 -1.9045073907e-08 -1.9045073907e-08 -1.9855702516e-07 -1.4436450307e-08 -1.7954674512e-19
          -2.2048481256e-07 -1.9045073907e-08 1.9045073907e-08 -2.3561016133e-07 -1.7418506909e-08 5.9822645849e-08
          -2.5965822616e-07 -5.6074027028e-08 -5.6074027028e-08 -2.3561016133e-07 -5.9822645849e-08 -1.7418506909e-08
          -2.0955857385e-07 -5.4662782401e-08 -3.3107520904e-20 -2.3561016133e-07 -5.9822645849e-08 1.7418506909e-08
          -2.5965822616e-07 -5.6074027027e-08 5.6074027028e-08 -8.0564414085e-08 1.6613544052e-08 -1.6613544052e-08
          -7.2535649607e-08 1.7735342192e-08 -5.1323004857e-09 -6.4124299139e-08 1.6235654652e-08 -3.1319387063e-19
          -7.2535649607e-08 1.7735342192e-08 5.1323004858e-09 -8.0564414085e-08 1.6613544052e-08 1.6613544052e-08
          -7.2535649607e-08 5.1323004858e-09 -1.7735342192e-08 -6.7865665473e-08 5.6161889131e-09 -5.616188913e-09
          -6.0913406308e-08 4.2204195305e-09 -7.9787373237e-20 -6.7865665473e-08 5.6161889131e-09 5.6161889129e-09
          -7.2535649607e-08 5.1323004856e-09 1.7735342192e-08 -6.4124299139e-08 -1.8855047606e-20 -1.6235654652e-08
          -6.0913406308e-08 3.1296983734e-20 -4.2204195308e-09 -5.5224573968e-08 -1.6098763486e-19 2.2125643079e-19
          -6.0913406308e-08 -4.1024417347e-20 4.2204195306e-09 -6.4124299139e-08 4.6056517783e-19 1.6235654652e-08
          -7.2535649607e-08 -5.1323004856e-09 -1.7735342192e-08 -6.7865665473e-08 -5.6161889127e-09 -5.6161889131e-09
          -6.0913406308e-08 -4.220419531e-09 -2.8381834182e-19 -6.7865665473e-08 -5.6161889129e-09 5.6161889128e-09
          -7.2535649607e-08 -5.1323004862e-09 1.7735342192e-08 -8.0564414084e-08 -1.6613544052e-08 -1.6613544052e-08
          -7.2535649607e-08 -1.7735342192e-08 -5.1323004862e-09 -6.4124299139e-08 -1.6235654652e-08 -4.8756530725e-19
          -7.2535649607e-08 -1.7735342192e-08 5.1323004859e-09 -8.0564414084e-08 -1.6613544052e-08 1.6613544052e-08
          -2.3462299123e-08 4.6872735966e-09 -4.6872735966e-09 -2.1047752109e-08 5.0040395193e-09 -1.424297495e-09
          -1.853260158e-08 4.5871725135e-09 4.0915775705e-19 -2.1047752108e-08 5.0040395193e-09 1.4242974951e-09
          -2.3462299123e-08 4.6872735966e-09 4.6872735965e-09 -2.1047752108e-08 1.4242974952e-09 -5.0040395193e-09
          -1.9644920934e-08 1.5624261773e-09 -1.5624261771e-09 -1.7581876969e-08 1.1572371419e-09 1.3605824943e-19