<?xml version="1.0"?>
<VTKFile type="UnstructuredGrid" version="0.1" byte_order="LittleEndian" compressor="vtkZLibDataCompressor">
  <UnstructuredGrid>
    <Piece NumberOfPoints="2" NumberOfCells="2">
      <PointData>
        <DataArray type="Float64" Name="Acceleration" NumberOfComponents="3" format="ascii" RangeMin="1227.0992854" RangeMax="1227.0992854">
          -1227.0992854 0 0 1227.0992854 0 0
        </DataArray>
        <DataArray type="Float64" Name="Dilatation" format="ascii" RangeMin="-2.4541985707e-05" RangeMax="-2.4541985707e-05">
          -2.4541985707e-05 -2.4541985707e-05
        </DataArray>
        <DataArray type="Float64" Name="Displacement" NumberOfComponents="3" format="ascii" RangeMin="8.1806619025e-06" RangeMax="8.1806619025e-06">
          8.1806619025e-06 0 0 -8.1806619025e-06 0 0
        </DataArray>
        <DataArray type="Float64" Name="Force" NumberOfComponents="3" format="ascii" RangeMin="19142748.852" RangeMax="19142748.852">
          -19142748.852 0 0 19142748.852 0 0
        </DataArray>
        <DataArray type="Float64" Name="Force_Density" NumberOfComponents="3" format="ascii" RangeMin="9571374.4259" RangeMax="9571374.4259">
          -9571374.4259 0 0 9571374.4259 0 0
        </DataArray>
        <DataArray type="Int32" Name="ID" format="ascii" RangeMin="0" RangeMax="1">
          0 1
        </DataArray>
        <DataArray type="Int32" Name="Proc_Num" format="ascii" RangeMin="0" RangeMax="0">
          0 0
        </DataArray>
        <DataArray type="Float64" Name="Velocity" NumberOfComponents="3" format="ascii" RangeMin="0.070305831494" RangeMax="0.070305831494">
          -0.070305831494 0 0 0.070305831494 0 0
        </DataArray>
        <DataArray type="Float64" Name="Weighted_Volume" format="ascii" RangeMin="8" RangeMax="8">
          8 8
        </DataArray>
      </PointData>
      <CellData>
      </CellData>
      <Points>
        <DataArray type="Float64" Name="Points" NumberOfComponents="3" format="ascii" RangeMin="1" RangeMax="1">
          -1 0 0 1 0 0
        </DataArray>
      </Points>
      <Cells>
        <DataArray type="Int64" Name="connectivity" format="ascii" RangeMin="0" RangeMax="1">
          0 1
        </DataArray>
        <DataArray type="Int64" Name="offsets" format="ascii" RangeMin="1" RangeMax="2">
          1 2
        </DataArray>
        <DataArray type="UInt8" Name="types" format="ascii" RangeMin="1" RangeMax="1">
          1 1
        </DataArray>
      </Cells>
    </Piece>
  </UnstructuredGrid>
</VTKFile>
