<?xml version="1.0"?>
<VTKFile type="UnstructuredGrid" version="0.1" byte_order="LittleEndian" compressor="vtkZLibDataCompressor">
  <UnstructuredGrid>
    <Piece NumberOfPoints="8" NumberOfCells="8">
      <PointData>
        <DataArray type="Float64" Name="Displacement" NumberOfComponents="3" format="ascii" RangeMin="0.19059714902" RangeMax="0.19059714902">
          0.089889076781 0.089889076781 -0.14201120014 -0.089889076781 0.089889076781 -0.14201120014
          0.089889076781 -0.089889076781 -0.14201120014 -0.089889076781 -0.089889076781 -0.14201120014
          0.089889076781 0.089889076781 0.14201120014 -0.089889076781 0.089889076781 0.14201120014
          0.089889076781 -0.089889076781 0.14201120014 -0.089889076781 -0.089889076781 0.14201120014
        </DataArray>
        <DataArray type="Float64" Name="Velocity" NumberOfComponents="3" format="ascii" RangeMin="9.1060361548" RangeMax="9.1060361548">
          -4.9034159432 -4.9034159432 -5.9019419371 4.9034159432 -4.9034159432 -5.9019419371
          -4.9034159432 4.9034159432 -5.9019419371 4.9034159432 4.9034159432 -5.9019419371
          -4.9034159432 -4.9034159432 5.9019419371 4.9034159432 -4.9034159432 5.9019419371
          -4.9034159432 4.9034159432 5.9019419371 4.9034159432 4.9034159432 5.9019419371
        </DataArray>
        <DataArray type="Float64" Name="Force Density" NumberOfComponents="3" format="ascii" RangeMin="6580.7183849" RangeMax="6580.7183849">
          2943.6908886 2943.6908886 5096.5892876 -2943.6908886 2943.6908886 5096.5892876
          2943.6908886 -2943.6908886 5096.5892876 -2943.6908886 -2943.6908886 5096.5892876
          2943.6908886 2943.6908886 -5096.5892876 -2943.6908886 2943.6908886 -5096.5892876
          2943.6908886 -2943.6908886 -5096.5892876 -2943.6908886 -2943.6908886 -5096.5892876
        </DataArray>
        <DataArray type="Int32" Name="Id" format="ascii" RangeMin="0" RangeMax="7">
          0 1 2 3 4 5
          6 7
        </DataArray>
        <DataArray type="Int32" Name="Proc_Num" format="ascii" RangeMin="0" RangeMax="0">
          0 0 0 0 0 0
          0 0
        </DataArray>
        <DataArray type="Float64" Name="Dilatation" format="ascii" RangeMin="0.014258817132" RangeMax="0.014258817132">
          0.014258817132 0.014258817132 0.014258817132 0.014258817132 0.014258817132 0.014258817132
          0.014258817132 0.014258817132
        </DataArray>
        <DataArray type="Float64" Name="Lambda" format="ascii" RangeMin="0.0010445444761" RangeMax="0.0010445444761">
          0.0010445444761 0.0010445444761 0.0010445444761 0.0010445444761 0.0010445444761 0.0010445444761
          0.0010445444761 0.0010445444761
        </DataArray>
      </PointData>
      <CellData>
      </CellData>
      <Points>
        <DataArray type="Float64" Name="Points" NumberOfComponents="3" format="ascii" RangeMin="0.43301270189" RangeMax="1.2990381057">
          0.25 0.25 0.25 0.75 0.25 0.25
          0.25 0.75 0.25 0.75 0.75 0.25
          0.25 0.25 0.75 0.75 0.25 0.75
          0.25 0.75 0.75 0.75 0.75 0.75
        </DataArray>
      </Points>
      <Cells>
        <DataArray type="Int64" Name="connectivity" format="ascii" RangeMin="0" RangeMax="7">
          0 1 2 3 4 5
          6 7
        </DataArray>
        <DataArray type="Int64" Name="offsets" format="ascii" RangeMin="1" RangeMax="8">
          1 2 3 4 5 6
          7 8
        </DataArray>
        <DataArray type="UInt8" Name="types" format="ascii" RangeMin="1" RangeMax="1">
          1 1 1 1 1 1
          1 1
        </DataArray>
      </Cells>
    </Piece>
  </UnstructuredGrid>
</VTKFile>
