<?xml version="1.0"?>
<VTKFile type="UnstructuredGrid" version="0.1" byte_order="LittleEndian" compressor="vtkZLibDataCompressor">
  <UnstructuredGrid>
    <Piece NumberOfPoints="8" NumberOfCells="8">
      <PointData>
        <DataArray type="Float64" Name="Displacement" NumberOfComponents="3" format="ascii" RangeMin="0.19074359351" RangeMax="0.19074359351">
          0.090809849669 0.090809849669 -0.14103283615 -0.090809849669 0.090809849669 -0.14103283615
          0.090809849669 -0.090809849669 -0.14103283615 -0.090809849669 -0.090809849669 -0.14103283615
          0.090809849669 0.090809849669 0.14103283615 -0.090809849669 0.090809849669 0.14103283615
          0.090809849669 -0.090809849669 0.14103283615 -0.090809849669 -0.090809849669 0.14103283615
        </DataArray>
        <DataArray type="Float64" Name="Velocity" NumberOfComponents="3" format="ascii" RangeMin="15.763837467" RangeMax="15.763837467">
          6.4504345396 6.4504345395 12.856218736 -6.4504345395 6.4504345396 12.856218736
          6.4504345395 -6.4504345395 12.856218736 -6.4504345395 -6.4504345396 12.856218736
          6.4504345396 6.4504345395 -12.856218736 -6.4504345396 6.4504345395 -12.856218736
          6.4504345395 -6.4504345395 -12.856218736 -6.4504345395 -6.4504345395 -12.856218736
        </DataArray>
        <DataArray type="Float64" Name="Force Density" NumberOfComponents="3" format="ascii" RangeMin="1623.4922105" RangeMax="1623.4922105">
          668.51296918 668.51296918 1319.813539 -668.51296918 668.51296918 1319.813539
          668.51296918 -668.51296918 1319.813539 -668.51296918 -668.51296918 1319.813539
          668.51296918 668.51296918 -1319.813539 -668.51296918 668.51296918 -1319.813539
          668.51296919 -668.51296919 -1319.813539 -668.51296918 -668.51296918 -1319.813539
        </DataArray>
        <DataArray type="Int32" Name="Id" format="ascii" RangeMin="0" RangeMax="7">
          0 1 2 3 4 5
          6 7
        </DataArray>
        <DataArray type="Int32" Name="Proc_Num" format="ascii" RangeMin="0" RangeMax="0">
          0 0 0 0 0 0
          0 0
        </DataArray>
        <DataArray type="Float64" Name="Dilatation" format="ascii" RangeMin="0.0034569230117" RangeMax="0.0034569230117">
          0.0034569230117 0.0034569230117 0.0034569230117 0.0034569230117 0.0034569230117 0.0034569230117
          0.0034569230117 0.0034569230117
        </DataArray>
        <DataArray type="Float64" Name="Lambda" format="ascii" RangeMin="0.0011834079788" RangeMax="0.0011834079788">
          0.0011834079788 0.0011834079788 0.0011834079788 0.0011834079788 0.0011834079788 0.0011834079788
          0.0011834079788 0.0011834079788
        </DataArray>
      </PointData>
      <CellData>
      </CellData>
      <Points>
        <DataArray type="Float64" Name="Points" NumberOfComponents="3" format="ascii" RangeMin="0.43301270189" RangeMax="1.2990381057">
          0.25 0.25 0.25 0.75 0.25 0.25
          0.25 0.75 0.25 0.75 0.75 0.25
          0.25 0.25 0.75 0.75 0.25 0.75
          0.25 0.75 0.75 0.75 0.75 0.75
        </DataArray>
      </Points>
      <Cells>
        <DataArray type="Int64" Name="connectivity" format="ascii" RangeMin="0" RangeMax="7">
          0 1 2 3 4 5
          6 7
        </DataArray>
        <DataArray type="Int64" Name="offsets" format="ascii" RangeMin="1" RangeMax="8">
          1 2 3 4 5 6
          7 8
        </DataArray>
        <DataArray type="UInt8" Name="types" format="ascii" RangeMin="1" RangeMax="1">
          1 1 1 1 1 1
          1 1
        </DataArray>
      </Cells>
    </Piece>
  </UnstructuredGrid>
</VTKFile>
