<?xml version="1.0"?>
<VTKFile type="UnstructuredGrid" version="0.1" byte_order="LittleEndian" compressor="vtkZLibDataCompressor">
  <UnstructuredGrid>
    <Piece NumberOfPoints="8" NumberOfCells="8">
      <PointData>
        <DataArray type="Float64" Name="Displacement" NumberOfComponents="3" format="ascii" RangeMin="0.1904988943" RangeMax="0.1904988943">
          0.091299321088 0.091299321088 -0.14006675789 -0.091299321088 0.091299321088 -0.14006675789
          0.091299321088 -0.091299321088 -0.14006675789 -0.091299321088 -0.091299321088 -0.14006675789
          0.091299321088 0.091299321088 0.14006675789 -0.091299321088 0.091299321088 0.14006675789
          0.091299321088 -0.091299321088 0.14006675789 -0.091299321088 -0.091299321088 0.14006675789
        </DataArray>
        <DataArray type="Float64" Name="Velocity" NumberOfComponents="3" format="ascii" RangeMin="1.7683676344" RangeMax="1.7683676344">
          0.72684502172 0.72684502172 1.4389290181 -0.72684502172 0.72684502172 1.4389290181
          0.72684502172 -0.72684502172 1.4389290181 -0.72684502172 -0.72684502172 1.4389290181
          0.72684502172 0.72684502172 -1.4389290181 -0.72684502172 0.72684502172 -1.4389290181
          0.72684502172 -0.72684502172 -1.4389290181 -0.72684502172 -0.72684502172 -1.4389290181
        </DataArray>
        <DataArray type="Float64" Name="Force Density" NumberOfComponents="3" format="ascii" RangeMin="2147.0060184" RangeMax="2147.0060184">
          -880.93077699 -880.93077699 -1748.5870797 880.93077699 -880.93077699 -1748.5870797
          -880.93077699 880.93077699 -1748.5870797 880.93077699 880.93077699 -1748.5870797
          -880.93077699 -880.93077699 1748.5870797 880.93077699 -880.93077699 1748.5870797
          -880.93077699 880.93077699 1748.5870797 880.93077699 880.93077699 1748.5870797
        </DataArray>
        <DataArray type="Int32" Name="Id" format="ascii" RangeMin="0" RangeMax="7">
          0 1 2 3 4 5
          6 7
        </DataArray>
        <DataArray type="Int32" Name="Proc_Num" format="ascii" RangeMin="0" RangeMax="0">
          0 0 0 0 0 0
          0 0
        </DataArray>
        <DataArray type="Float64" Name="Dilatation" format="ascii" RangeMin="-0.004568143003" RangeMax="-0.004568143003">
          -0.004568143003 -0.004568143003 -0.004568143003 -0.004568143003 -0.004568143003 -0.004568143003
          -0.004568143003 -0.004568143003
        </DataArray>
        <DataArray type="Float64" Name="Lambda" format="ascii" RangeMin="0.0011838583848" RangeMax="0.0011838583848">
          0.0011838583848 0.0011838583848 0.0011838583848 0.0011838583848 0.0011838583848 0.0011838583848
          0.0011838583848 0.0011838583848
        </DataArray>
      </PointData>
      <CellData>
      </CellData>
      <Points>
        <DataArray type="Float64" Name="Points" NumberOfComponents="3" format="ascii" RangeMin="0.43301270189" RangeMax="1.2990381057">
          0.25 0.25 0.25 0.75 0.25 0.25
          0.25 0.75 0.25 0.75 0.75 0.25
          0.25 0.25 0.75 0.75 0.25 0.75
          0.25 0.75 0.75 0.75 0.75 0.75
        </DataArray>
      </Points>
      <Cells>
        <DataArray type="Int64" Name="connectivity" format="ascii" RangeMin="0" RangeMax="7">
          0 1 2 3 4 5
          6 7
        </DataArray>
        <DataArray type="Int64" Name="offsets" format="ascii" RangeMin="1" RangeMax="8">
          1 2 3 4 5 6
          7 8
        </DataArray>
        <DataArray type="UInt8" Name="types" format="ascii" RangeMin="1" RangeMax="1">
          1 1 1 1 1 1
          1 1
        </DataArray>
      </Cells>
    </Piece>
  </UnstructuredGrid>
</VTKFile>
