<?xml version="1.0"?>
<VTKFile type="UnstructuredGrid" version="0.1" byte_order="LittleEndian" compressor="vtkZLibDataCompressor">
  <UnstructuredGrid>
    <Piece NumberOfPoints="8" NumberOfCells="8">
      <PointData>
        <DataArray type="Float64" Name="Displacement" NumberOfComponents="3" format="ascii" RangeMin="0.19078317696" RangeMax="0.19078317696">
          0.090615101111 0.090615101111 -0.14133657528 -0.090615101111 0.090615101111 -0.14133657528
          0.090615101111 -0.090615101111 -0.14133657528 -0.090615101111 -0.090615101111 -0.14133657528
          0.090615101111 0.090615101111 0.14133657528 -0.090615101111 0.090615101111 0.14133657528
          0.090615101111 -0.090615101111 0.14133657528 -0.090615101111 -0.090615101111 0.14133657528
        </DataArray>
        <DataArray type="Float64" Name="Velocity" NumberOfComponents="3" format="ascii" RangeMin="9.6730227369" RangeMax="9.6730227369">
          3.6459701625 3.6459701625 8.1842025889 -3.6459701625 3.6459701625 8.1842025889
          3.6459701625 -3.6459701625 8.1842025889 -3.6459701625 -3.6459701625 8.1842025889
          3.6459701625 3.6459701625 -8.1842025889 -3.6459701625 3.6459701625 -8.1842025889
          3.6459701625 -3.6459701625 -8.1842025889 -3.6459701625 -3.6459701625 -8.1842025889
        </DataArray>
        <DataArray type="Float64" Name="Force Density" NumberOfComponents="3" format="ascii" RangeMin="2903.5652089" RangeMax="2903.5652089">
          1244.5495057 1244.5495057 2309.3037864 -1244.5495057 1244.5495057 2309.3037864
          1244.5495057 -1244.5495057 2309.3037864 -1244.5495057 -1244.5495057 2309.3037864
          1244.5495057 1244.5495057 -2309.3037864 -1244.5495057 1244.5495057 -2309.3037864
          1244.5495057 -1244.5495057 -2309.3037864 -1244.5495057 -1244.5495057 -2309.3037864
        </DataArray>
        <DataArray type="Int32" Name="Id" format="ascii" RangeMin="0" RangeMax="7">
          0 1 2 3 4 5
          6 7
        </DataArray>
        <DataArray type="Int32" Name="Proc_Num" format="ascii" RangeMin="0" RangeMax="0">
          0 0 0 0 0 0
          0 0
        </DataArray>
        <DataArray type="Float64" Name="Dilatation" format="ascii" RangeMin="0.0062370163889" RangeMax="0.0062370163889">
          0.0062370163889 0.0062370163889 0.0062370163889 0.0062370163889 0.0062370163889 0.0062370163889
          0.0062370163889 0.0062370163889
        </DataArray>
        <DataArray type="Float64" Name="Lambda" format="ascii" RangeMin="0.0011676982604" RangeMax="0.0011676982604">
          0.0011676982604 0.0011676982604 0.0011676982604 0.0011676982604 0.0011676982604 0.0011676982604
          0.0011676982604 0.0011676982604
        </DataArray>
      </PointData>
      <CellData>
      </CellData>
      <Points>
        <DataArray type="Float64" Name="Points" NumberOfComponents="3" format="ascii" RangeMin="0.43301270189" RangeMax="1.2990381057">
          0.25 0.25 0.25 0.75 0.25 0.25
          0.25 0.75 0.25 0.75 0.75 0.25
          0.25 0.25 0.75 0.75 0.25 0.75
          0.25 0.75 0.75 0.75 0.75 0.75
        </DataArray>
      </Points>
      <Cells>
        <DataArray type="Int64" Name="connectivity" format="ascii" RangeMin="0" RangeMax="7">
          0 1 2 3 4 5
          6 7
        </DataArray>
        <DataArray type="Int64" Name="offsets" format="ascii" RangeMin="1" RangeMax="8">
          1 2 3 4 5 6
          7 8
        </DataArray>
        <DataArray type="UInt8" Name="types" format="ascii" RangeMin="1" RangeMax="1">
          1 1 1 1 1 1
          1 1
        </DataArray>
      </Cells>
    </Piece>
  </UnstructuredGrid>
</VTKFile>
