<?xml version="1.0"?>
<VTKFile type="UnstructuredGrid" version="0.1" byte_order="LittleEndian" compressor="vtkZLibDataCompressor">
  <UnstructuredGrid>
    <Piece NumberOfPoints="8" NumberOfCells="8">
      <PointData>
        <DataArray type="Float64" Name="Displacement" NumberOfComponents="3" format="ascii" RangeMin="0.19042488717" RangeMax="0.19042488717">
          0.091474117209 0.091474117209 -0.13973764495 -0.091474117209 0.091474117209 -0.13973764495
          0.091474117209 -0.091474117209 -0.13973764495 -0.091474117209 -0.091474117209 -0.13973764495
          0.091474117209 0.091474117209 0.13973764495 -0.091474117209 0.091474117209 0.13973764495
          0.091474117209 -0.091474117209 0.13973764495 -0.091474117209 -0.091474117209 0.13973764495
        </DataArray>
        <DataArray type="Float64" Name="Velocity" NumberOfComponents="3" format="ascii" RangeMin="5.1881563547" RangeMax="5.1881563547">
          -1.5946783495 -1.5946783495 -4.6723621739 1.5946783495 -1.5946783495 -4.6723621739
          -1.5946783495 1.5946783495 -4.6723621739 1.5946783495 1.5946783495 -4.6723621739
          -1.5946783495 -1.5946783495 4.6723621739 1.5946783495 -1.5946783495 4.6723621739
          -1.5946783495 1.5946783495 4.6723621739 1.5946783495 1.5946783495 4.6723621739
        </DataArray>
        <DataArray type="Float64" Name="Force Density" NumberOfComponents="3" format="ascii" RangeMin="3416.7060701" RangeMax="3416.7060701">
          -1476.2084492 -1476.2084492 -2704.717656 1476.2084492 -1476.2084492 -2704.717656
          -1476.2084492 1476.2084492 -2704.717656 1476.2084492 1476.2084492 -2704.717656
          -1476.2084492 -1476.2084492 2704.717656 1476.2084492 -1476.2084492 2704.717656
          -1476.2084492 1476.2084492 2704.717656 1476.2084492 1476.2084492 2704.717656
        </DataArray>
        <DataArray type="Int32" Name="Id" format="ascii" RangeMin="0" RangeMax="7">
          0 1 2 3 4 5
          6 7
        </DataArray>
        <DataArray type="Int32" Name="Proc_Num" format="ascii" RangeMin="0" RangeMax="0">
          0 0 0 0 0 0
          0 0
        </DataArray>
        <DataArray type="Float64" Name="Dilatation" format="ascii" RangeMin="-0.0073526108341" RangeMax="-0.0073526108341">
          -0.0073526108341 -0.0073526108341 -0.0073526108341 -0.0073526108341 -0.0073526108341 -0.0073526108341
          -0.0073526108341 -0.0073526108341
        </DataArray>
        <DataArray type="Float64" Name="Lambda" format="ascii" RangeMin="0.0011582713705" RangeMax="0.0011582713705">
          0.0011582713705 0.0011582713705 0.0011582713705 0.0011582713705 0.0011582713705 0.0011582713705
          0.0011582713705 0.0011582713705
        </DataArray>
      </PointData>
      <CellData>
      </CellData>
      <Points>
        <DataArray type="Float64" Name="Points" NumberOfComponents="3" format="ascii" RangeMin="0.43301270189" RangeMax="1.2990381057">
          0.25 0.25 0.25 0.75 0.25 0.25
          0.25 0.75 0.25 0.75 0.75 0.25
          0.25 0.25 0.75 0.75 0.25 0.75
          0.25 0.75 0.75 0.75 0.75 0.75
        </DataArray>
      </Points>
      <Cells>
        <DataArray type="Int64" Name="connectivity" format="ascii" RangeMin="0" RangeMax="7">
          0 1 2 3 4 5
          6 7
        </DataArray>
        <DataArray type="Int64" Name="offsets" format="ascii" RangeMin="1" RangeMax="8">
          1 2 3 4 5 6
          7 8
        </DataArray>
        <DataArray type="UInt8" Name="types" format="ascii" RangeMin="1" RangeMax="1">
          1 1 1 1 1 1
          1 1
        </DataArray>
      </Cells>
    </Piece>
  </UnstructuredGrid>
</VTKFile>
