<?xml version="1.0"?>
<VTKFile type="UnstructuredGrid" version="0.1" byte_order="LittleEndian" compressor="vtkZLibDataCompressor">
  <UnstructuredGrid>
    <Piece NumberOfPoints="8" NumberOfCells="8">
      <PointData>
        <DataArray type="Float64" Name="Displacement" NumberOfComponents="3" format="ascii" RangeMin="0.19074102558" RangeMax="0.19074102558">
          0.090822151321 0.090822151321 -0.14101351885 -0.090822151321 0.090822151321 -0.14101351885
          0.090822151321 -0.090822151321 -0.14101351885 -0.090822151321 -0.090822151321 -0.14101351885
          0.090822151321 0.090822151321 0.14101351885 -0.090822151321 0.090822151321 0.14101351885
          0.090822151321 -0.090822151321 0.14101351885 -0.090822151321 -0.090822151321 0.14101351885
        </DataArray>
        <DataArray type="Float64" Name="Velocity" NumberOfComponents="3" format="ascii" RangeMin="16.248171027" RangeMax="16.248171027">
          6.6665624519 6.6665624519 13.233176183 -6.6665624519 6.6665624519 13.233176183
          6.6665624519 -6.6665624519 13.233176183 -6.6665624519 -6.6665624519 13.233176183
          6.6665624519 6.6665624519 -13.233176183 -6.6665624519 6.6665624519 -13.233176183
          6.6665624519 -6.6665624519 -13.233176183 -6.6665624519 -6.6665624519 -13.233176183
        </DataArray>
        <DataArray type="Float64" Name="Force Density" NumberOfComponents="3" format="ascii" RangeMin="1541.813012" RangeMax="1541.813012">
          632.83331364 632.83331364 1255.4805288 -632.83331364 632.83331364 1255.4805288
          632.83331364 -632.83331364 1255.4805288 -632.83331364 -632.83331364 1255.4805288
          632.83331364 632.83331364 -1255.4805288 -632.83331364 632.83331364 -1255.4805288
          632.83331364 -632.83331364 -1255.4805288 -632.83331364 -632.83331364 -1255.4805288
        </DataArray>
        <DataArray type="Int32" Name="Id" format="ascii" RangeMin="0" RangeMax="7">
          0 1 2 3 4 5
          6 7
        </DataArray>
        <DataArray type="Int32" Name="Proc_Num" format="ascii" RangeMin="0" RangeMax="0">
          0 0 0 0 0 0
          0 0
        </DataArray>
        <DataArray type="Float64" Name="Dilatation" format="ascii" RangeMin="0.0032806441191" RangeMax="0.0032806441191">
          0.0032806441191 0.0032806441191 0.0032806441191 0.0032806441191 0.0032806441191 0.0032806441191
          0.0032806441191 0.0032806441191
        </DataArray>
        <DataArray type="Float64" Name="Lambda" format="ascii" RangeMin="0.0011838481503" RangeMax="0.0011838481503">
          0.0011838481503 0.0011838481503 0.0011838481503 0.0011838481503 0.0011838481503 0.0011838481503
          0.0011838481503 0.0011838481503
        </DataArray>
      </PointData>
      <CellData>
      </CellData>
      <Points>
        <DataArray type="Float64" Name="Points" NumberOfComponents="3" format="ascii" RangeMin="0.43301270189" RangeMax="1.2990381057">
          0.25 0.25 0.25 0.75 0.25 0.25
          0.25 0.75 0.25 0.75 0.75 0.25
          0.25 0.25 0.75 0.75 0.25 0.75
          0.25 0.75 0.75 0.75 0.75 0.75
        </DataArray>
      </Points>
      <Cells>
        <DataArray type="Int64" Name="connectivity" format="ascii" RangeMin="0" RangeMax="7">
          0 1 2 3 4 5
          6 7
        </DataArray>
        <DataArray type="Int64" Name="offsets" format="ascii" RangeMin="1" RangeMax="8">
          1 2 3 4 5 6
          7 8
        </DataArray>
        <DataArray type="UInt8" Name="types" format="ascii" RangeMin="1" RangeMax="1">
          1 1 1 1 1 1
          1 1
        </DataArray>
      </Cells>
    </Piece>
  </UnstructuredGrid>
</VTKFile>
