<?xml version="1.0"?>
<VTKFile type="UnstructuredGrid" version="0.1" byte_order="LittleEndian" compressor="vtkZLibDataCompressor">
  <UnstructuredGrid>
    <Piece NumberOfPoints="8" NumberOfCells="8">
      <PointData>
        <DataArray type="Float64" Name="Displacement" NumberOfComponents="3" format="ascii" RangeMin="0.19073589655" RangeMax="0.19073589655">
          0.090826227253 0.090826227253 -0.1410013302 -0.090826227253 0.090826227253 -0.1410013302
          0.090826227253 -0.090826227253 -0.1410013302 -0.090826227253 -0.090826227253 -0.1410013302
          0.090826227253 0.090826227253 0.1410013302 -0.090826227253 0.090826227253 0.1410013302
          0.090826227253 -0.090826227253 0.1410013302 -0.090826227253 -0.090826227253 0.1410013302
        </DataArray>
        <DataArray type="Float64" Name="Velocity" NumberOfComponents="3" format="ascii" RangeMin="22.899118153" RangeMax="22.899118153">
          -9.747367332 -9.747367332 -18.285165364 9.747367332 -9.747367332 -18.285165364
          -9.747367332 9.747367332 -18.285165364 9.747367332 9.747367332 -18.285165364
          -9.747367332 -9.747367332 18.285165364 9.747367332 -9.747367332 18.285165364
          -9.747367332 9.747367332 18.285165364 9.747367332 9.747367332 18.285165364
        </DataArray>
        <DataArray type="Float64" Name="Force Density" NumberOfComponents="3" format="ascii" RangeMin="1514.4737355" RangeMax="1514.4737355">
          596.97280561 596.97280561 1257.3295647 -596.97280561 596.97280561 1257.3295647
          596.97280561 -596.97280561 1257.3295647 -596.97280561 -596.97280561 1257.3295647
          596.97280561 596.97280561 -1257.3295647 -596.97280561 596.97280561 -1257.3295647
          596.97280561 -596.97280561 -1257.3295647 -596.97280561 -596.97280561 -1257.3295647
        </DataArray>
        <DataArray type="Int32" Name="Id" format="ascii" RangeMin="0" RangeMax="7">
          0 1 2 3 4 5
          6 7
        </DataArray>
        <DataArray type="Int32" Name="Proc_Num" format="ascii" RangeMin="0" RangeMax="0">
          0 0 0 0 0 0
          0 0
        </DataArray>
        <DataArray type="Float64" Name="Dilatation" format="ascii" RangeMin="0.00319259743" RangeMax="0.00319259743">
          0.00319259743 0.00319259743 0.00319259743 0.00319259743 0.00319259743 0.00319259743
          0.00319259743 0.00319259743
        </DataArray>
        <DataArray type="Float64" Name="Lambda" format="ascii" RangeMin="0.0011763140356" RangeMax="0.0011763140356">
          0.0011763140356 0.0011763140356 0.0011763140356 0.0011763140356 0.0011763140356 0.0011763140356
          0.0011763140356 0.0011763140356
        </DataArray>
      </PointData>
      <CellData>
      </CellData>
      <Points>
        <DataArray type="Float64" Name="Points" NumberOfComponents="3" format="ascii" RangeMin="0.43301270189" RangeMax="1.2990381057">
          0.25 0.25 0.25 0.75 0.25 0.25
          0.25 0.75 0.25 0.75 0.75 0.25
          0.25 0.25 0.75 0.75 0.25 0.75
          0.25 0.75 0.75 0.75 0.75 0.75
        </DataArray>
      </Points>
      <Cells>
        <DataArray type="Int64" Name="connectivity" format="ascii" RangeMin="0" RangeMax="7">
          0 1 2 3 4 5
          6 7
        </DataArray>
        <DataArray type="Int64" Name="offsets" format="ascii" RangeMin="1" RangeMax="8">
          1 2 3 4 5 6
          7 8
        </DataArray>
        <DataArray type="UInt8" Name="types" format="ascii" RangeMin="1" RangeMax="1">
          1 1 1 1 1 1
          1 1
        </DataArray>
      </Cells>
    </Piece>
  </UnstructuredGrid>
</VTKFile>
