<?xml version="1.0"?>
<VTKFile type="UnstructuredGrid" version="0.1" byte_order="LittleEndian" compressor="vtkZLibDataCompressor">
  <UnstructuredGrid>
    <Piece NumberOfPoints="8" NumberOfCells="8">
      <PointData>
        <DataArray type="Float64" Name="Displacement" NumberOfComponents="3" format="ascii" RangeMin="0.1906533798" RangeMax="0.1906533798">
          0.091007523735 0.091007523735 -0.14065550994 -0.091007523735 0.091007523735 -0.14065550994
          0.091007523735 -0.091007523735 -0.14065550994 -0.091007523735 -0.091007523735 -0.14065550994
          0.091007523735 0.091007523735 0.14065550994 -0.091007523735 0.091007523735 0.14065550994
          0.091007523735 -0.091007523735 0.14065550994 -0.091007523735 -0.091007523735 0.14065550994
        </DataArray>
        <DataArray type="Float64" Name="Velocity" NumberOfComponents="3" format="ascii" RangeMin="28.482448252" RangeMax="28.482448252">
          -11.898527372 -11.898527372 -22.980425392 11.898527372 -11.898527372 -22.980425392
          -11.898527372 11.898527372 -22.980425392 11.898527372 11.898527372 -22.980425392
          -11.898527372 -11.898527372 22.980425392 11.898527372 -11.898527372 22.980425392
          -11.898527372 11.898527372 22.980425392 11.898527372 11.898527372 22.980425392
        </DataArray>
        <DataArray type="Float64" Name="Force Density" NumberOfComponents="3" format="ascii" RangeMin="158.49497102" RangeMax="158.49497102">
          30.510682097 30.510682097 152.5085322 -30.510682097 30.510682097 152.5085322
          30.510682097 -30.510682097 152.5085322 -30.510682097 -30.510682097 152.5085322
          30.510682097 30.510682097 -152.5085322 -30.510682097 30.510682097 -152.5085322
          30.510682097 -30.510682097 -152.5085322 -30.510682097 -30.510682097 -152.5085322
        </DataArray>
        <DataArray type="Int32" Name="Id" format="ascii" RangeMin="0" RangeMax="7">
          0 1 2 3 4 5
          6 7
        </DataArray>
        <DataArray type="Int32" Name="Proc_Num" format="ascii" RangeMin="0" RangeMax="0">
          0 0 0 0 0 0
          0 0
        </DataArray>
        <DataArray type="Float64" Name="Dilatation" format="ascii" RangeMin="0.00028165388195" RangeMax="0.00028165388195">
          0.00028165388195 0.00028165388195 0.00028165388195 0.00028165388195 0.00028165388195 0.00028165388195
          0.00028165388195 0.00028165388195
        </DataArray>
        <DataArray type="Float64" Name="Lambda" format="ascii" RangeMin="0.0011756411084" RangeMax="0.0011756411084">
          0.0011756411084 0.0011756411084 0.0011756411084 0.0011756411084 0.0011756411084 0.0011756411084
          0.0011756411084 0.0011756411084
        </DataArray>
      </PointData>
      <CellData>
      </CellData>
      <Points>
        <DataArray type="Float64" Name="Points" NumberOfComponents="3" format="ascii" RangeMin="0.43301270189" RangeMax="1.2990381057">
          0.25 0.25 0.25 0.75 0.25 0.25
          0.25 0.75 0.25 0.75 0.75 0.25
          0.25 0.25 0.75 0.75 0.25 0.75
          0.25 0.75 0.75 0.75 0.75 0.75
        </DataArray>
      </Points>
      <Cells>
        <DataArray type="Int64" Name="connectivity" format="ascii" RangeMin="0" RangeMax="7">
          0 1 2 3 4 5
          6 7
        </DataArray>
        <DataArray type="Int64" Name="offsets" format="ascii" RangeMin="1" RangeMax="8">
          1 2 3 4 5 6
          7 8
        </DataArray>
        <DataArray type="UInt8" Name="types" format="ascii" RangeMin="1" RangeMax="1">
          1 1 1 1 1 1
          1 1
        </DataArray>
      </Cells>
    </Piece>
  </UnstructuredGrid>
</VTKFile>
