<?xml version="1.0"?>
<VTKFile type="UnstructuredGrid" version="0.1" byte_order="LittleEndian" compressor="vtkZLibDataCompressor">
  <UnstructuredGrid>
    <Piece NumberOfPoints="8" NumberOfCells="8">
      <PointData>
        <DataArray type="Float64" Name="Displacement" NumberOfComponents="3" format="ascii" RangeMin="0.19072232859" RangeMax="0.19072232859">
          0.090858684648 0.090858684648 -0.14094114186 -0.090858684648 0.090858684648 -0.14094114186
          0.090858684648 -0.090858684648 -0.14094114186 -0.090858684648 -0.090858684648 -0.14094114186
          0.090858684648 0.090858684648 0.14094114186 -0.090858684648 0.090858684648 0.14094114186
          0.090858684648 -0.090858684648 0.14094114186 -0.090858684648 -0.090858684648 0.14094114186
        </DataArray>
        <DataArray type="Float64" Name="Velocity" NumberOfComponents="3" format="ascii" RangeMin="18.885491289" RangeMax="18.885491289">
          -7.751617897 -7.7516178969 -15.37812151 7.751617897 -7.751617897 -15.37812151
          -7.751617897 7.751617897 -15.37812151 7.7516178969 7.7516178969 -15.37812151
          -7.751617897 -7.751617897 15.37812151 7.751617897 -7.751617897 15.37812151
          -7.7516178969 7.7516178969 15.37812151 7.751617897 7.751617897 15.37812151
        </DataArray>
        <DataArray type="Float64" Name="Force Density" NumberOfComponents="3" format="ascii" RangeMin="1259.8392875" RangeMax="1259.8392875">
          516.75126812 516.75126812 1026.2218493 -516.75126812 516.75126812 1026.2218493
          516.75126812 -516.75126812 1026.2218493 -516.75126812 -516.75126812 1026.2218493
          516.75126812 516.75126812 -1026.2218493 -516.75126812 516.75126812 -1026.2218493
          516.75126812 -516.75126812 -1026.2218493 -516.75126812 -516.75126812 -1026.2218493
        </DataArray>
        <DataArray type="Int32" Name="Id" format="ascii" RangeMin="0" RangeMax="7">
          0 1 2 3 4 5
          6 7
        </DataArray>
        <DataArray type="Int32" Name="Proc_Num" format="ascii" RangeMin="0" RangeMax="0">
          0 0 0 0 0 0
          0 0
        </DataArray>
        <DataArray type="Float64" Name="Dilatation" format="ascii" RangeMin="0.0026802780415" RangeMax="0.0026802780415">
          0.0026802780415 0.0026802780415 0.0026802780415 0.0026802780415 0.0026802780415 0.0026802780415
          0.0026802780415 0.0026802780415
        </DataArray>
        <DataArray type="Float64" Name="Lambda" format="ascii" RangeMin="0.0011838340805" RangeMax="0.0011838340805">
          0.0011838340805 0.0011838340805 0.0011838340805 0.0011838340805 0.0011838340805 0.0011838340805
          0.0011838340805 0.0011838340805
        </DataArray>
      </PointData>
      <CellData>
      </CellData>
      <Points>
        <DataArray type="Float64" Name="Points" NumberOfComponents="3" format="ascii" RangeMin="0.43301270189" RangeMax="1.2990381057">
          0.25 0.25 0.25 0.75 0.25 0.25
          0.25 0.75 0.25 0.75 0.75 0.25
          0.25 0.25 0.75 0.75 0.25 0.75
          0.25 0.75 0.75 0.75 0.75 0.75
        </DataArray>
      </Points>
      <Cells>
        <DataArray type="Int64" Name="connectivity" format="ascii" RangeMin="0" RangeMax="7">
          0 1 2 3 4 5
          6 7
        </DataArray>
        <DataArray type="Int64" Name="offsets" format="ascii" RangeMin="1" RangeMax="8">
          1 2 3 4 5 6
          7 8
        </DataArray>
        <DataArray type="UInt8" Name="types" format="ascii" RangeMin="1" RangeMax="1">
          1 1 1 1 1 1
          1 1
        </DataArray>
      </Cells>
    </Piece>
  </UnstructuredGrid>
</VTKFile>
