<?xml version="1.0"?>
<VTKFile type="UnstructuredGrid" version="0.1" byte_order="LittleEndian" compressor="vtkZLibDataCompressor">
  <UnstructuredGrid>
    <Piece NumberOfPoints="8" NumberOfCells="8">
      <PointData>
        <DataArray type="Float64" Name="Displacement" NumberOfComponents="3" format="ascii" RangeMin="0.19050760879" RangeMax="0.19050760879">
          0.09125432152 0.09125432152 -0.14013724207 -0.09125432152 0.09125432152 -0.14013724207
          0.09125432152 -0.09125432152 -0.14013724207 -0.09125432152 -0.09125432152 -0.14013724207
          0.09125432152 0.09125432152 0.14013724207 -0.09125432152 0.09125432152 0.14013724207
          0.09125432152 -0.09125432152 0.14013724207 -0.09125432152 -0.09125432152 0.14013724207
        </DataArray>
        <DataArray type="Float64" Name="Velocity" NumberOfComponents="3" format="ascii" RangeMin="16.749415971" RangeMax="16.749415972">
          7.1075250144 7.1075250144 13.398101049 -7.1075250144 7.1075250144 13.398101049
          7.1075250144 -7.1075250144 13.398101049 -7.1075250144 -7.1075250144 13.398101049
          7.1075250144 7.1075250144 -13.398101049 -7.1075250144 7.1075250144 -13.398101049
          7.1075250144 -7.1075250144 -13.398101049 -7.1075250144 -7.1075250144 -13.398101049
        </DataArray>
        <DataArray type="Float64" Name="Force Density" NumberOfComponents="3" format="ascii" RangeMin="1852.1138019" RangeMax="1852.1138019">
          -746.13962261 -746.13962261 -1522.1290557 746.13962261 -746.13962261 -1522.1290557
          -746.13962261 746.13962261 -1522.1290557 746.13962261 746.13962261 -1522.1290557
          -746.13962261 -746.13962261 1522.1290557 746.13962261 -746.13962261 1522.1290557
          -746.13962261 746.13962261 1522.1290557 746.13962261 746.13962261 1522.1290557
        </DataArray>
        <DataArray type="Int32" Name="Id" format="ascii" RangeMin="0" RangeMax="7">
          0 1 2 3 4 5
          6 7
        </DataArray>
        <DataArray type="Int32" Name="Proc_Num" format="ascii" RangeMin="0" RangeMax="0">
          0 0 0 0 0 0
          0 0
        </DataArray>
        <DataArray type="Float64" Name="Dilatation" format="ascii" RangeMin="-0.0039242442855" RangeMax="-0.0039242442855">
          -0.0039242442855 -0.0039242442855 -0.0039242442855 -0.0039242442855 -0.0039242442855 -0.0039242442855
          -0.0039242442855 -0.0039242442855
        </DataArray>
        <DataArray type="Float64" Name="Lambda" format="ascii" RangeMin="0.0011796593508" RangeMax="0.0011796593508">
          0.0011796593508 0.0011796593508 0.0011796593508 0.0011796593508 0.0011796593508 0.0011796593508
          0.0011796593508 0.0011796593508
        </DataArray>
      </PointData>
      <CellData>
      </CellData>
      <Points>
        <DataArray type="Float64" Name="Points" NumberOfComponents="3" format="ascii" RangeMin="0.43301270189" RangeMax="1.2990381057">
          0.25 0.25 0.25 0.75 0.25 0.25
          0.25 0.75 0.25 0.75 0.75 0.25
          0.25 0.25 0.75 0.75 0.25 0.75
          0.25 0.75 0.75 0.75 0.75 0.75
        </DataArray>
      </Points>
      <Cells>
        <DataArray type="Int64" Name="connectivity" format="ascii" RangeMin="0" RangeMax="7">
          0 1 2 3 4 5
          6 7
        </DataArray>
        <DataArray type="Int64" Name="offsets" format="ascii" RangeMin="1" RangeMax="8">
          1 2 3 4 5 6
          7 8
        </DataArray>
        <DataArray type="UInt8" Name="types" format="ascii" RangeMin="1" RangeMax="1">
          1 1 1 1 1 1
          1 1
        </DataArray>
      </Cells>
    </Piece>
  </UnstructuredGrid>
</VTKFile>
