<?xml version="1.0"?>
<VTKFile type="UnstructuredGrid" version="0.1" byte_order="LittleEndian" compressor="vtkZLibDataCompressor">
  <UnstructuredGrid>
    <Piece NumberOfPoints="8" NumberOfCells="8">
      <PointData>
        <DataArray type="Float64" Name="Displacement" NumberOfComponents="3" format="ascii" RangeMin="0.19056228432" RangeMax="0.19056228432">
          0.091197338299 0.091197338299 -0.14028569129 -0.091197338299 0.091197338299 -0.14028569129
          0.091197338299 -0.091197338299 -0.14028569129 -0.091197338299 -0.091197338299 -0.14028569129
          0.091197338299 0.091197338299 0.14028569129 -0.091197338299 0.091197338299 0.14028569129
          0.091197338299 -0.091197338299 0.14028569129 -0.091197338299 -0.091197338299 0.14028569129
        </DataArray>
        <DataArray type="Float64" Name="Velocity" NumberOfComponents="3" format="ascii" RangeMin="25.308437264" RangeMax="25.308437264">
          -10.41187192 -10.41187192 -20.584043407 10.41187192 -10.41187192 -20.584043407
          -10.41187192 10.41187192 -20.584043407 10.41187192 10.41187192 -20.584043407
          -10.41187192 -10.41187192 20.584043407 10.41187192 -10.41187192 20.584043407
          -10.41187192 10.41187192 20.584043407 10.41187192 10.41187192 20.584043407
        </DataArray>
        <DataArray type="Float64" Name="Force Density" NumberOfComponents="3" format="ascii" RangeMin="1300.9216528" RangeMax="1300.9216528">
          -568.15465141 -568.15465141 -1023.1313361 568.15465141 -568.15465141 -1023.1313361
          -568.15465141 568.15465141 -1023.1313361 568.15465141 568.15465141 -1023.1313361
          -568.15465141 -568.15465141 1023.1313361 568.15465141 -568.15465141 1023.1313361
          -568.15465141 568.15465141 1023.1313361 568.15465141 568.15465141 1023.1313361
        </DataArray>
        <DataArray type="Int32" Name="Id" format="ascii" RangeMin="0" RangeMax="7">
          0 1 2 3 4 5
          6 7
        </DataArray>
        <DataArray type="Int32" Name="Proc_Num" format="ascii" RangeMin="0" RangeMax="0">
          0 0 0 0 0 0
          0 0
        </DataArray>
        <DataArray type="Float64" Name="Dilatation" format="ascii" RangeMin="-0.0028057280611" RangeMax="-0.0028057280611">
          -0.0028057280611 -0.0028057280611 -0.0028057280611 -0.0028057280611 -0.0028057280611 -0.0028057280611
          -0.0028057280611 -0.0028057280611
        </DataArray>
        <DataArray type="Float64" Name="Lambda" format="ascii" RangeMin="0.0011749192154" RangeMax="0.0011749192154">
          0.0011749192154 0.0011749192154 0.0011749192154 0.0011749192154 0.0011749192154 0.0011749192154
          0.0011749192154 0.0011749192154
        </DataArray>
      </PointData>
      <CellData>
      </CellData>
      <Points>
        <DataArray type="Float64" Name="Points" NumberOfComponents="3" format="ascii" RangeMin="0.43301270189" RangeMax="1.2990381057">
          0.25 0.25 0.25 0.75 0.25 0.25
          0.25 0.75 0.25 0.75 0.75 0.25
          0.25 0.25 0.75 0.75 0.25 0.75
          0.25 0.75 0.75 0.75 0.75 0.75
        </DataArray>
      </Points>
      <Cells>
        <DataArray type="Int64" Name="connectivity" format="ascii" RangeMin="0" RangeMax="7">
          0 1 2 3 4 5
          6 7
        </DataArray>
        <DataArray type="Int64" Name="offsets" format="ascii" RangeMin="1" RangeMax="8">
          1 2 3 4 5 6
          7 8
        </DataArray>
        <DataArray type="UInt8" Name="types" format="ascii" RangeMin="1" RangeMax="1">
          1 1 1 1 1 1
          1 1
        </DataArray>
      </Cells>
    </Piece>
  </UnstructuredGrid>
</VTKFile>
