<?xml version="1.0"?>
<VTKFile type="UnstructuredGrid" version="0.1" byte_order="LittleEndian" compressor="vtkZLibDataCompressor">
  <UnstructuredGrid>
    <Piece NumberOfPoints="8" NumberOfCells="8">
      <PointData>
        <DataArray type="Float64" Name="Displacement" NumberOfComponents="3" format="ascii" RangeMin="0.19052369366" RangeMax="0.19052369366">
          0.091250418426 0.091250418426 -0.14016418987 -0.091250418426 0.091250418426 -0.14016418987
          0.091250418426 -0.091250418426 -0.14016418987 -0.091250418426 -0.091250418426 -0.14016418987
          0.091250418426 0.091250418426 0.14016418987 -0.091250418426 0.091250418426 0.14016418987
          0.091250418426 -0.091250418426 0.14016418987 -0.091250418426 -0.091250418426 0.14016418987
        </DataArray>
        <DataArray type="Float64" Name="Velocity" NumberOfComponents="3" format="ascii" RangeMin="13.25938543" RangeMax="13.25938543">
          5.4410598644 5.4410598644 10.79819601 -5.4410598644 5.4410598644 10.79819601
          5.4410598644 -5.4410598644 10.79819601 -5.4410598644 -5.4410598644 10.79819601
          5.4410598644 5.4410598644 -10.79819601 -5.4410598644 5.4410598644 -10.79819601
          5.4410598644 -5.4410598644 -10.79819601 -5.4410598644 -5.4410598644 -10.79819601
        </DataArray>
        <DataArray type="Float64" Name="Force Density" NumberOfComponents="3" format="ascii" RangeMin="1767.9528144" RangeMax="1767.9528144">
          -725.48211963 -725.48211963 -1439.7946181 725.48211963 -725.48211963 -1439.7946181
          -725.48211963 725.48211963 -1439.7946181 725.48211963 725.48211963 -1439.7946181
          -725.48211963 -725.48211963 1439.7946181 725.48211963 -725.48211963 1439.7946181
          -725.48211963 725.48211963 1439.7946181 725.48211963 725.48211963 1439.7946181
        </DataArray>
        <DataArray type="Int32" Name="Id" format="ascii" RangeMin="0" RangeMax="7">
          0 1 2 3 4 5
          6 7
        </DataArray>
        <DataArray type="Int32" Name="Proc_Num" format="ascii" RangeMin="0" RangeMax="0">
          0 0 0 0 0 0
          0 0
        </DataArray>
        <DataArray type="Float64" Name="Dilatation" format="ascii" RangeMin="-0.0037617003108" RangeMax="-0.0037617003108">
          -0.0037617003108 -0.0037617003108 -0.0037617003108 -0.0037617003108 -0.0037617003108 -0.0037617003108
          -0.0037617003108 -0.0037617003108
        </DataArray>
        <DataArray type="Float64" Name="Lambda" format="ascii" RangeMin="0.0011838733199" RangeMax="0.0011838733199">
          0.0011838733199 0.0011838733199 0.0011838733199 0.0011838733199 0.0011838733199 0.0011838733199
          0.0011838733199 0.0011838733199
        </DataArray>
      </PointData>
      <CellData>
      </CellData>
      <Points>
        <DataArray type="Float64" Name="Points" NumberOfComponents="3" format="ascii" RangeMin="0.43301270189" RangeMax="1.2990381057">
          0.25 0.25 0.25 0.75 0.25 0.25
          0.25 0.75 0.25 0.75 0.75 0.25
          0.25 0.25 0.75 0.75 0.25 0.75
          0.25 0.75 0.75 0.75 0.75 0.75
        </DataArray>
      </Points>
      <Cells>
        <DataArray type="Int64" Name="connectivity" format="ascii" RangeMin="0" RangeMax="7">
          0 1 2 3 4 5
          6 7
        </DataArray>
        <DataArray type="Int64" Name="offsets" format="ascii" RangeMin="1" RangeMax="8">
          1 2 3 4 5 6
          7 8
        </DataArray>
        <DataArray type="UInt8" Name="types" format="ascii" RangeMin="1" RangeMax="1">
          1 1 1 1 1 1
          1 1
        </DataArray>
      </Cells>
    </Piece>
  </UnstructuredGrid>
</VTKFile>
