<?xml version="1.0"?>
<VTKFile type="UnstructuredGrid" version="0.1" byte_order="LittleEndian" compressor="vtkZLibDataCompressor">
  <UnstructuredGrid>
    <Piece NumberOfPoints="8" NumberOfCells="8">
      <PointData>
        <DataArray type="Float64" Name="Displacement" NumberOfComponents="3" format="ascii" RangeMin="0.19058819458" RangeMax="0.19058819458">
          0.091122301581 0.091122301581 -0.14041834718 -0.091122301581 0.091122301581 -0.14041834718
          0.091122301581 -0.091122301581 -0.14041834718 -0.091122301581 -0.091122301581 -0.14041834718
          0.091122301581 0.091122301581 0.14041834718 -0.091122301581 0.091122301581 0.14041834718
          0.091122301581 -0.091122301581 0.14041834718 -0.091122301581 -0.091122301581 0.14041834718
        </DataArray>
        <DataArray type="Float64" Name="Velocity" NumberOfComponents="3" format="ascii" RangeMin="21.682433536" RangeMax="21.682433536">
          8.8974461617 8.8974461617 17.657826243 -8.8974461617 8.8974461617 17.657826243
          8.8974461617 -8.8974461617 17.657826243 -8.8974461617 -8.8974461617 17.657826243
          8.8974461617 8.8974461617 -17.657826243 -8.8974461617 8.8974461617 -17.657826243
          8.8974461617 -8.8974461617 -17.657826243 -8.8974461617 -8.8974461617 -17.657826243
        </DataArray>
        <DataArray type="Float64" Name="Force Density" NumberOfComponents="3" format="ascii" RangeMin="777.64290769" RangeMax="777.64290769">
          -319.12641343 -319.12641343 -633.28126167 319.12641343 -319.12641343 -633.28126167
          -319.12641343 319.12641343 -633.28126167 319.12641343 319.12641343 -633.28126167
          -319.12641343 -319.12641343 633.28126167 319.12641343 -319.12641343 633.28126167
          -319.12641343 319.12641343 633.28126167 319.12641343 319.12641343 633.28126167
        </DataArray>
        <DataArray type="Int32" Name="Id" format="ascii" RangeMin="0" RangeMax="7">
          0 1 2 3 4 5
          6 7
        </DataArray>
        <DataArray type="Int32" Name="Proc_Num" format="ascii" RangeMin="0" RangeMax="0">
          0 0 0 0 0 0
          0 0
        </DataArray>
        <DataArray type="Float64" Name="Dilatation" format="ascii" RangeMin="-0.0016545740965" RangeMax="-0.0016545740965">
          -0.0016545740965 -0.0016545740965 -0.0016545740965 -0.0016545740965 -0.0016545740965 -0.0016545740965
          -0.0016545740965 -0.0016545740965
        </DataArray>
        <DataArray type="Float64" Name="Lambda" format="ascii" RangeMin="0.0011838696249" RangeMax="0.0011838696249">
          0.0011838696249 0.0011838696249 0.0011838696249 0.0011838696249 0.0011838696249 0.0011838696249
          0.0011838696249 0.0011838696249
        </DataArray>
      </PointData>
      <CellData>
      </CellData>
      <Points>
        <DataArray type="Float64" Name="Points" NumberOfComponents="3" format="ascii" RangeMin="0.43301270189" RangeMax="1.2990381057">
          0.25 0.25 0.25 0.75 0.25 0.25
          0.25 0.75 0.25 0.75 0.75 0.25
          0.25 0.25 0.75 0.75 0.25 0.75
          0.25 0.75 0.75 0.75 0.75 0.75
        </DataArray>
      </Points>
      <Cells>
        <DataArray type="Int64" Name="connectivity" format="ascii" RangeMin="0" RangeMax="7">
          0 1 2 3 4 5
          6 7
        </DataArray>
        <DataArray type="Int64" Name="offsets" format="ascii" RangeMin="1" RangeMax="8">
          1 2 3 4 5 6
          7 8
        </DataArray>
        <DataArray type="UInt8" Name="types" format="ascii" RangeMin="1" RangeMax="1">
          1 1 1 1 1 1
          1 1
        </DataArray>
      </Cells>
    </Piece>
  </UnstructuredGrid>
</VTKFile>
