<?xml version="1.0"?>
<VTKFile type="UnstructuredGrid" version="0.1" byte_order="LittleEndian" compressor="vtkZLibDataCompressor">
  <UnstructuredGrid>
    <Piece NumberOfPoints="8" NumberOfCells="8">
      <PointData>
        <DataArray type="Float64" Name="Displacement" NumberOfComponents="3" format="ascii" RangeMin="0.18899725229" RangeMax="0.18899725229">
          0.091458307895 0.091458307895 -0.13780681118 -0.091458307895 0.091458307895 -0.13780681118
          0.091458307895 -0.091458307895 -0.13780681118 -0.091458307895 -0.091458307895 -0.13780681118
          0.091458307895 0.091458307895 0.13780681118 -0.091458307895 0.091458307895 0.13780681118
          0.091458307895 -0.091458307895 0.13780681118 -0.091458307895 -0.091458307895 0.13780681118
        </DataArray>
        <DataArray type="Float64" Name="Velocity" NumberOfComponents="3" format="ascii" RangeMin="52.256951864" RangeMax="52.256951864">
          24.955503442 24.955503442 38.538743026 -24.955503442 24.955503442 38.538743026
          24.955503442 -24.955503442 38.538743026 -24.955503442 -24.955503442 38.538743026
          24.955503442 24.955503442 -38.538743026 -24.955503442 24.955503442 -38.538743026
          24.955503442 -24.955503442 -38.538743026 -24.955503442 -24.955503442 -38.538743026
        </DataArray>
        <DataArray type="Float64" Name="Force Density" NumberOfComponents="3" format="ascii" RangeMin="7899.6325368" RangeMax="7899.6325368">
          -3556.99819 -3556.99819 -6090.9541099 3556.99819 -3556.99819 -6090.9541099
          -3556.99819 3556.99819 -6090.9541099 3556.99819 3556.99819 -6090.9541099
          -3556.99819 -3556.99819 6090.9541099 3556.99819 -3556.99819 6090.9541099
          -3556.99819 3556.99819 6090.9541099 3556.99819 3556.99819 6090.9541099
        </DataArray>
        <DataArray type="Int32" Name="Id" format="ascii" RangeMin="0" RangeMax="7">
          0 1 2 3 4 5
          6 7
        </DataArray>
        <DataArray type="Int32" Name="Proc_Num" format="ascii" RangeMin="0" RangeMax="0">
          0 0 0 0 0 0
          0 0
        </DataArray>
        <DataArray type="Float64" Name="Dilatation" format="ascii" RangeMin="-0.017137990399" RangeMax="-0.017137990399">
          -0.017137990399 -0.017137990399 -0.017137990399 -0.017137990399 -0.017137990399 -0.017137990399
          -0.017137990399 -0.017137990399
        </DataArray>
        <DataArray type="Float64" Name="Lambda" format="ascii" RangeMin="0.00089726345597" RangeMax="0.00089726345597">
          0.00089726345597 0.00089726345597 0.00089726345597 0.00089726345597 0.00089726345597 0.00089726345597
          0.00089726345597 0.00089726345597
        </DataArray>
      </PointData>
      <CellData>
      </CellData>
      <Points>
        <DataArray type="Float64" Name="Points" NumberOfComponents="3" format="ascii" RangeMin="0.43301270189" RangeMax="1.2990381057">
          0.25 0.25 0.25 0.75 0.25 0.25
          0.25 0.75 0.25 0.75 0.75 0.25
          0.25 0.25 0.75 0.75 0.25 0.75
          0.25 0.75 0.75 0.75 0.75 0.75
        </DataArray>
      </Points>
      <Cells>
        <DataArray type="Int64" Name="connectivity" format="ascii" RangeMin="0" RangeMax="7">
          0 1 2 3 4 5
          6 7
        </DataArray>
        <DataArray type="Int64" Name="offsets" format="ascii" RangeMin="1" RangeMax="8">
          1 2 3 4 5 6
          7 8
        </DataArray>
        <DataArray type="UInt8" Name="types" format="ascii" RangeMin="1" RangeMax="1">
          1 1 1 1 1 1
          1 1
        </DataArray>
      </Cells>
    </Piece>
  </UnstructuredGrid>
</VTKFile>
