<?xml version="1.0"?>
<VTKFile type="UnstructuredGrid" version="0.1" byte_order="LittleEndian" compressor="vtkZLibDataCompressor">
  <UnstructuredGrid>
    <Piece NumberOfPoints="8" NumberOfCells="8">
      <PointData>
        <DataArray type="Float64" Name="Displacement" NumberOfComponents="3" format="ascii" RangeMin="0.19073902283" RangeMax="0.19073902283">
          0.090826552432 0.090826552432 -0.14100514025 -0.090826552432 0.090826552432 -0.14100514025
          0.090826552432 -0.090826552432 -0.14100514025 -0.090826552432 -0.090826552432 -0.14100514025
          0.090826552432 0.090826552432 0.14100514025 -0.090826552432 0.090826552432 0.14100514025
          0.090826552432 -0.090826552432 0.14100514025 -0.090826552432 -0.090826552432 0.14100514025
        </DataArray>
        <DataArray type="Float64" Name="Velocity" NumberOfComponents="3" format="ascii" RangeMin="16.586696619" RangeMax="16.586696619">
          6.8065509573 6.8065509573 13.507784158 -6.8065509573 6.8065509573 13.507784158
          6.8065509573 -6.8065509573 13.507784158 -6.8065509573 -6.8065509573 13.507784158
          6.8065509573 6.8065509573 -13.507784158 -6.8065509573 6.8065509573 -13.507784158
          6.8065509573 -6.8065509573 -13.507784158 -6.8065509573 -6.8065509573 -13.507784158
        </DataArray>
        <DataArray type="Float64" Name="Force Density" NumberOfComponents="3" format="ascii" RangeMin="1508.6920218" RangeMax="1508.6920218">
          619.14333263 619.14333263 1228.6068061 -619.14333263 619.14333263 1228.6068061
          619.14333263 -619.14333263 1228.6068061 -619.14333263 -619.14333263 1228.6068061
          619.14333263 619.14333263 -1228.6068061 -619.14333263 619.14333263 -1228.6068061
          619.14333263 -619.14333263 -1228.6068061 -619.14333263 -619.14333263 -1228.6068061
        </DataArray>
        <DataArray type="Int32" Name="Id" format="ascii" RangeMin="0" RangeMax="7">
          0 1 2 3 4 5
          6 7
        </DataArray>
        <DataArray type="Int32" Name="Proc_Num" format="ascii" RangeMin="0" RangeMax="0">
          0 0 0 0 0 0
          0 0
        </DataArray>
        <DataArray type="Float64" Name="Dilatation" format="ascii" RangeMin="0.0032100627985" RangeMax="0.0032100627985">
          0.0032100627985 0.0032100627985 0.0032100627985 0.0032100627985 0.0032100627985 0.0032100627985
          0.0032100627985 0.0032100627985
        </DataArray>
        <DataArray type="Float64" Name="Lambda" format="ascii" RangeMin="0.0011838684072" RangeMax="0.0011838684072">
          0.0011838684072 0.0011838684072 0.0011838684072 0.0011838684072 0.0011838684072 0.0011838684072
          0.0011838684072 0.0011838684072
        </DataArray>
      </PointData>
      <CellData>
      </CellData>
      <Points>
        <DataArray type="Float64" Name="Points" NumberOfComponents="3" format="ascii" RangeMin="0.43301270189" RangeMax="1.2990381057">
          0.25 0.25 0.25 0.75 0.25 0.25
          0.25 0.75 0.25 0.75 0.75 0.25
          0.25 0.25 0.75 0.75 0.25 0.75
          0.25 0.75 0.75 0.75 0.75 0.75
        </DataArray>
      </Points>
      <Cells>
        <DataArray type="Int64" Name="connectivity" format="ascii" RangeMin="0" RangeMax="7">
          0 1 2 3 4 5
          6 7
        </DataArray>
        <DataArray type="Int64" Name="offsets" format="ascii" RangeMin="1" RangeMax="8">
          1 2 3 4 5 6
          7 8
        </DataArray>
        <DataArray type="UInt8" Name="types" format="ascii" RangeMin="1" RangeMax="1">
          1 1 1 1 1 1
          1 1
        </DataArray>
      </Cells>
    </Piece>
  </UnstructuredGrid>
</VTKFile>
