<?xml version="1.0"?>
<VTKFile type="UnstructuredGrid" version="0.1" byte_order="LittleEndian" compressor="vtkZLibDataCompressor">
  <UnstructuredGrid>
    <Piece NumberOfPoints="8" NumberOfCells="8">
      <PointData>
        <DataArray type="Float64" Name="Displacement" NumberOfComponents="3" format="ascii" RangeMin="0.19072968005" RangeMax="0.19072968005">
          0.090844995254 0.090844995254 -0.14096873599 -0.090844995254 0.090844995254 -0.14096873599
          0.090844995254 -0.090844995254 -0.14096873599 -0.090844995254 -0.090844995254 -0.14096873599
          0.090844995254 0.090844995254 0.14096873599 -0.090844995254 0.090844995254 0.14096873599
          0.090844995254 -0.090844995254 0.14096873599 -0.090844995254 -0.090844995254 0.14096873599
        </DataArray>
        <DataArray type="Float64" Name="Velocity" NumberOfComponents="3" format="ascii" RangeMin="17.961548377" RangeMax="17.961548377">
          -7.3711054758 -7.3711054758 -14.627058086 7.3711054758 -7.3711054758 -14.627058086
          -7.3711054758 7.3711054758 -14.627058086 7.3711054758 7.3711054758 -14.627058086
          -7.3711054758 -7.3711054758 14.627058086 7.3711054758 -7.3711054758 14.627058086
          -7.3711054758 7.3711054758 14.627058086 7.3711054758 7.3711054758 14.627058086
        </DataArray>
        <DataArray type="Float64" Name="Force Density" NumberOfComponents="3" format="ascii" RangeMin="1366.5859853" RangeMax="1366.5859853">
          560.78496467 560.78496467 1112.9230441 -560.78496467 560.78496467 1112.9230441
          560.78496467 -560.78496467 1112.9230441 -560.78496467 -560.78496467 1112.9230441
          560.78496467 560.78496467 -1112.9230441 -560.78496467 560.78496467 -1112.9230441
          560.78496467 -560.78496467 -1112.9230441 -560.78496467 -560.78496467 -1112.9230441
        </DataArray>
        <DataArray type="Int32" Name="Id" format="ascii" RangeMin="0" RangeMax="7">
          0 1 2 3 4 5
          6 7
        </DataArray>
        <DataArray type="Int32" Name="Proc_Num" format="ascii" RangeMin="0" RangeMax="0">
          0 0 0 0 0 0
          0 0
        </DataArray>
        <DataArray type="Float64" Name="Dilatation" format="ascii" RangeMin="0.0029076670366" RangeMax="0.0029076670366">
          0.0029076670366 0.0029076670366 0.0029076670366 0.0029076670366 0.0029076670366 0.0029076670366
          0.0029076670366 0.0029076670366
        </DataArray>
        <DataArray type="Float64" Name="Lambda" format="ascii" RangeMin="0.0011838738999" RangeMax="0.0011838738999">
          0.0011838738999 0.0011838738999 0.0011838738999 0.0011838738999 0.0011838738999 0.0011838738999
          0.0011838738999 0.0011838738999
        </DataArray>
      </PointData>
      <CellData>
      </CellData>
      <Points>
        <DataArray type="Float64" Name="Points" NumberOfComponents="3" format="ascii" RangeMin="0.43301270189" RangeMax="1.2990381057">
          0.25 0.25 0.25 0.75 0.25 0.25
          0.25 0.75 0.25 0.75 0.75 0.25
          0.25 0.25 0.75 0.75 0.25 0.75
          0.25 0.75 0.75 0.75 0.75 0.75
        </DataArray>
      </Points>
      <Cells>
        <DataArray type="Int64" Name="connectivity" format="ascii" RangeMin="0" RangeMax="7">
          0 1 2 3 4 5
          6 7
        </DataArray>
        <DataArray type="Int64" Name="offsets" format="ascii" RangeMin="1" RangeMax="8">
          1 2 3 4 5 6
          7 8
        </DataArray>
        <DataArray type="UInt8" Name="types" format="ascii" RangeMin="1" RangeMax="1">
          1 1 1 1 1 1
          1 1
        </DataArray>
      </Cells>
    </Piece>
  </UnstructuredGrid>
</VTKFile>
