<?xml version="1.0"?>
<VTKFile type="UnstructuredGrid" version="0.1" byte_order="LittleEndian" compressor="vtkZLibDataCompressor">
  <UnstructuredGrid>
    <Piece NumberOfPoints="8" NumberOfCells="8">
      <PointData>
        <DataArray type="Float64" Name="Displacement" NumberOfComponents="3" format="ascii" RangeMin="0.1907979801" RangeMax="0.1907979801">
          0.090445999851 0.090445999851 -0.14157298977 -0.090445999851 0.090445999851 -0.14157298977
          0.090445999851 -0.090445999851 -0.14157298977 -0.090445999851 -0.090445999851 -0.14157298977
          0.090445999851 0.090445999851 0.14157298977 -0.090445999851 0.090445999851 0.14157298977
          0.090445999851 -0.090445999851 0.14157298977 -0.090445999851 -0.090445999851 0.14157298977
        </DataArray>
        <DataArray type="Float64" Name="Velocity" NumberOfComponents="3" format="ascii" RangeMin="1.4327658489" RangeMax="1.4327658489">
          -0.34648590313 -0.34648590313 1.3463703115 0.34648590313 -0.34648590313 1.3463703115
          -0.34648590313 0.34648590313 1.3463703115 0.34648590313 0.34648590313 1.3463703115
          -0.34648590313 -0.34648590313 -1.3463703115 0.34648590313 -0.34648590313 -1.3463703115
          -0.34648590313 0.34648590313 -1.3463703115 0.34648590313 0.34648590313 -1.3463703115
        </DataArray>
        <DataArray type="Float64" Name="Force Density" NumberOfComponents="3" format="ascii" RangeMin="3948.4558227" RangeMax="3948.4558227">
          1720.7588109 1720.7588109 3109.3860509 -1720.7588109 1720.7588109 3109.3860509
          1720.7588109 -1720.7588109 3109.3860509 -1720.7588109 -1720.7588109 3109.3860509
          1720.7588109 1720.7588109 -3109.3860509 -1720.7588109 1720.7588109 -3109.3860509
          1720.7588109 -1720.7588109 -3109.3860509 -1720.7588109 -1720.7588109 -3109.3860509
        </DataArray>
        <DataArray type="Int32" Name="Id" format="ascii" RangeMin="0" RangeMax="7">
          0 1 2 3 4 5
          6 7
        </DataArray>
        <DataArray type="Int32" Name="Proc_Num" format="ascii" RangeMin="0" RangeMax="0">
          0 0 0 0 0 0
          0 0
        </DataArray>
        <DataArray type="Float64" Name="Dilatation" format="ascii" RangeMin="0.0085111338473" RangeMax="0.0085111338473">
          0.0085111338473 0.0085111338473 0.0085111338473 0.0085111338473 0.0085111338473 0.0085111338473
          0.0085111338473 0.0085111338473
        </DataArray>
        <DataArray type="Float64" Name="Lambda" format="ascii" RangeMin="0.0011451981369" RangeMax="0.0011451981369">
          0.0011451981369 0.0011451981369 0.0011451981369 0.0011451981369 0.0011451981369 0.0011451981369
          0.0011451981369 0.0011451981369
        </DataArray>
      </PointData>
      <CellData>
      </CellData>
      <Points>
        <DataArray type="Float64" Name="Points" NumberOfComponents="3" format="ascii" RangeMin="0.43301270189" RangeMax="1.2990381057">
          0.25 0.25 0.25 0.75 0.25 0.25
          0.25 0.75 0.25 0.75 0.75 0.25
          0.25 0.25 0.75 0.75 0.25 0.75
          0.25 0.75 0.75 0.75 0.75 0.75
        </DataArray>
      </Points>
      <Cells>
        <DataArray type="Int64" Name="connectivity" format="ascii" RangeMin="0" RangeMax="7">
          0 1 2 3 4 5
          6 7
        </DataArray>
        <DataArray type="Int64" Name="offsets" format="ascii" RangeMin="1" RangeMax="8">
          1 2 3 4 5 6
          7 8
        </DataArray>
        <DataArray type="UInt8" Name="types" format="ascii" RangeMin="1" RangeMax="1">
          1 1 1 1 1 1
          1 1
        </DataArray>
      </Cells>
    </Piece>
  </UnstructuredGrid>
</VTKFile>
