<?xml version="1.0"?>
<VTKFile type="UnstructuredGrid" version="0.1" byte_order="LittleEndian" compressor="vtkZLibDataCompressor">
  <UnstructuredGrid>
    <Piece NumberOfPoints="8" NumberOfCells="8">
      <PointData>
        <DataArray type="Float64" Name="Displacement" NumberOfComponents="3" format="ascii" RangeMin="0.19057406082" RangeMax="0.19057406082">
          0.091105937497 0.091105937497 -0.14042040081 -0.091105937497 0.091105937497 -0.14042040081
          0.091105937497 -0.091105937497 -0.14042040081 -0.091105937497 -0.091105937497 -0.14042040081
          0.091105937497 0.091105937497 0.14042040081 -0.091105937497 0.091105937497 0.14042040081
          0.091105937497 -0.091105937497 0.14042040081 -0.091105937497 -0.091105937497 0.14042040081
        </DataArray>
        <DataArray type="Float64" Name="Velocity" NumberOfComponents="3" format="ascii" RangeMin="25.128049949" RangeMax="25.128049949">
          10.467852253 10.467852253 20.304359942 -10.467852253 10.467852253 20.304359942
          10.467852253 -10.467852253 20.304359942 -10.467852253 -10.467852253 20.304359942
          10.467852253 10.467852253 -20.304359942 -10.467852253 10.467852253 -20.304359942
          10.467852253 -10.467852253 -20.304359942 -10.467852253 -10.467852253 -20.304359942
        </DataArray>
        <DataArray type="Float64" Name="Force Density" NumberOfComponents="3" format="ascii" RangeMin="735.03043306" RangeMax="735.03043306">
          -283.12499715 -283.12499715 -616.40101355 283.12499715 -283.12499715 -616.40101355
          -283.12499715 283.12499715 -616.40101355 283.12499715 283.12499715 -616.40101355
          -283.12499715 -283.12499715 616.40101355 283.12499715 -283.12499715 616.40101355
          -283.12499715 283.12499715 616.40101355 283.12499715 283.12499715 616.40101355
        </DataArray>
        <DataArray type="Int32" Name="Id" format="ascii" RangeMin="0" RangeMax="7">
          0 1 2 3 4 5
          6 7
        </DataArray>
        <DataArray type="Int32" Name="Proc_Num" format="ascii" RangeMin="0" RangeMax="0">
          0 0 0 0 0 0
          0 0
        </DataArray>
        <DataArray type="Float64" Name="Dilatation" format="ascii" RangeMin="-0.0015411600797" RangeMax="-0.0015411600797">
          -0.0015411600797 -0.0015411600797 -0.0015411600797 -0.0015411600797 -0.0015411600797 -0.0015411600797
          -0.0015411600797 -0.0015411600797
        </DataArray>
        <DataArray type="Float64" Name="Lambda" format="ascii" RangeMin="0.0011792477595" RangeMax="0.0011792477595">
          0.0011792477595 0.0011792477595 0.0011792477595 0.0011792477595 0.0011792477595 0.0011792477595
          0.0011792477595 0.0011792477595
        </DataArray>
      </PointData>
      <CellData>
      </CellData>
      <Points>
        <DataArray type="Float64" Name="Points" NumberOfComponents="3" format="ascii" RangeMin="0.43301270189" RangeMax="1.2990381057">
          0.25 0.25 0.25 0.75 0.25 0.25
          0.25 0.75 0.25 0.75 0.75 0.25
          0.25 0.25 0.75 0.75 0.25 0.75
          0.25 0.75 0.75 0.75 0.75 0.75
        </DataArray>
      </Points>
      <Cells>
        <DataArray type="Int64" Name="connectivity" format="ascii" RangeMin="0" RangeMax="7">
          0 1 2 3 4 5
          6 7
        </DataArray>
        <DataArray type="Int64" Name="offsets" format="ascii" RangeMin="1" RangeMax="8">
          1 2 3 4 5 6
          7 8
        </DataArray>
        <DataArray type="UInt8" Name="types" format="ascii" RangeMin="1" RangeMax="1">
          1 1 1 1 1 1
          1 1
        </DataArray>
      </Cells>
    </Piece>
  </UnstructuredGrid>
</VTKFile>
