<?xml version="1.0"?>
<VTKFile type="UnstructuredGrid" version="0.1" byte_order="LittleEndian" compressor="vtkZLibDataCompressor">
  <UnstructuredGrid>
    <Piece NumberOfPoints="8" NumberOfCells="8">
      <PointData>
        <DataArray type="Float64" Name="Displacement" NumberOfComponents="3" format="ascii" RangeMin="0.19073695519" RangeMax="0.19073695519">
          0.090830903342 0.090830903342 -0.14099673781 -0.090830903342 0.090830903342 -0.14099673781
          0.090830903342 -0.090830903342 -0.14099673781 -0.090830903342 -0.090830903342 -0.14099673781
          0.090830903342 0.090830903342 0.14099673781 -0.090830903342 0.090830903342 0.14099673781
          0.090830903342 -0.090830903342 0.14099673781 -0.090830903342 -0.090830903342 0.14099673781
        </DataArray>
        <DataArray type="Float64" Name="Velocity" NumberOfComponents="3" format="ascii" RangeMin="16.925820254" RangeMax="16.925820254">
          6.9460398999 6.9460398999 13.783629809 -6.9460398999 6.9460398999 13.783629809
          6.9460398999 -6.9460398999 13.783629809 -6.9460398999 -6.9460398999 13.783629809
          6.9460398999 6.9460398999 -13.783629809 -6.9460398999 6.9460398999 -13.783629809
          6.9460398999 -6.9460398999 -13.783629809 -6.9460398999 -6.9460398999 -13.783629809
        </DataArray>
        <DataArray type="Float64" Name="Force Density" NumberOfComponents="3" format="ascii" RangeMin="1475.6254432" RangeMax="1475.6254432">
          605.54233092 605.54233092 1201.7102061 -605.54233092 605.54233092 1201.7102061
          605.54233092 -605.54233092 1201.7102061 -605.54233092 -605.54233092 1201.7102061
          605.54233092 605.54233092 -1201.7102061 -605.54233092 605.54233092 -1201.7102061
          605.54233092 -605.54233092 -1201.7102061 -605.54233092 -605.54233092 -1201.7102061
        </DataArray>
        <DataArray type="Int32" Name="Id" format="ascii" RangeMin="0" RangeMax="7">
          0 1 2 3 4 5
          6 7
        </DataArray>
        <DataArray type="Int32" Name="Proc_Num" format="ascii" RangeMin="0" RangeMax="0">
          0 0 0 0 0 0
          0 0
        </DataArray>
        <DataArray type="Float64" Name="Dilatation" format="ascii" RangeMin="0.0031396750555" RangeMax="0.0031396750555">
          0.0031396750555 0.0031396750555 0.0031396750555 0.0031396750555 0.0031396750555 0.0031396750555
          0.0031396750555 0.0031396750555
        </DataArray>
        <DataArray type="Float64" Name="Lambda" format="ascii" RangeMin="0.001183872935" RangeMax="0.001183872935">
          0.001183872935 0.001183872935 0.001183872935 0.001183872935 0.001183872935 0.001183872935
          0.001183872935 0.001183872935
        </DataArray>
      </PointData>
      <CellData>
      </CellData>
      <Points>
        <DataArray type="Float64" Name="Points" NumberOfComponents="3" format="ascii" RangeMin="0.43301270189" RangeMax="1.2990381057">
          0.25 0.25 0.25 0.75 0.25 0.25
          0.25 0.75 0.25 0.75 0.75 0.25
          0.25 0.25 0.75 0.75 0.25 0.75
          0.25 0.75 0.75 0.75 0.75 0.75
        </DataArray>
      </Points>
      <Cells>
        <DataArray type="Int64" Name="connectivity" format="ascii" RangeMin="0" RangeMax="7">
          0 1 2 3 4 5
          6 7
        </DataArray>
        <DataArray type="Int64" Name="offsets" format="ascii" RangeMin="1" RangeMax="8">
          1 2 3 4 5 6
          7 8
        </DataArray>
        <DataArray type="UInt8" Name="types" format="ascii" RangeMin="1" RangeMax="1">
          1 1 1 1 1 1
          1 1
        </DataArray>
      </Cells>
    </Piece>
  </UnstructuredGrid>
</VTKFile>
