<?xml version="1.0"?>
<VTKFile type="UnstructuredGrid" version="0.1" byte_order="LittleEndian" compressor="vtkZLibDataCompressor">
  <UnstructuredGrid>
    <Piece NumberOfPoints="8" NumberOfCells="8">
      <PointData>
        <DataArray type="Float64" Name="Displacement" NumberOfComponents="3" format="ascii" RangeMin="0.19077785371" RangeMax="0.19077785371">
          0.09075148343 0.09075148343 -0.14115426304 -0.09075148343 0.09075148343 -0.14115426304
          0.09075148343 -0.09075148343 -0.14115426304 -0.09075148343 -0.09075148343 -0.14115426304
          0.09075148343 0.09075148343 0.14115426304 -0.09075148343 0.09075148343 0.14115426304
          0.09075148343 -0.09075148343 0.14115426304 -0.09075148343 -0.09075148343 0.14115426304
        </DataArray>
        <DataArray type="Float64" Name="Velocity" NumberOfComponents="3" format="ascii" RangeMin="5.5772065783" RangeMax="5.5772065783">
          2.2887214466 2.2887214466 4.5418874376 -2.2887214466 2.2887214466 4.5418874377
          2.2887214466 -2.2887214466 4.5418874377 -2.2887214466 -2.2887214466 4.5418874376
          2.2887214466 2.2887214466 -4.5418874377 -2.2887214466 2.2887214466 -4.5418874376
          2.2887214466 -2.2887214466 -4.5418874376 -2.2887214466 -2.2887214466 -4.5418874377
        </DataArray>
        <DataArray type="Float64" Name="Force Density" NumberOfComponents="3" format="ascii" RangeMin="2089.4764625" RangeMax="2089.4764625">
          857.49644035 857.49644035 1701.5615172 -857.49644035 857.49644035 1701.5615172
          857.49644034 -857.49644034 1701.5615172 -857.49644035 -857.49644035 1701.5615172
          857.49644035 857.49644035 -1701.5615172 -857.49644035 857.49644035 -1701.5615172
          857.49644035 -857.49644035 -1701.5615172 -857.49644034 -857.49644034 -1701.5615172
        </DataArray>
        <DataArray type="Int32" Name="Id" format="ascii" RangeMin="0" RangeMax="7">
          0 1 2 3 4 5
          6 7
        </DataArray>
        <DataArray type="Int32" Name="Proc_Num" format="ascii" RangeMin="0" RangeMax="0">
          0 0 0 0 0 0
          0 0
        </DataArray>
        <DataArray type="Float64" Name="Dilatation" format="ascii" RangeMin="0.0044457600955" RangeMax="0.0044457600955">
          0.0044457600955 0.0044457600955 0.0044457600955 0.0044457600955 0.0044457600955 0.0044457600955
          0.0044457600955 0.0044457600955
        </DataArray>
        <DataArray type="Float64" Name="Lambda" format="ascii" RangeMin="0.0011838727645" RangeMax="0.0011838727645">
          0.0011838727645 0.0011838727645 0.0011838727645 0.0011838727645 0.0011838727645 0.0011838727645
          0.0011838727645 0.0011838727645
        </DataArray>
      </PointData>
      <CellData>
      </CellData>
      <Points>
        <DataArray type="Float64" Name="Points" NumberOfComponents="3" format="ascii" RangeMin="0.43301270189" RangeMax="1.2990381057">
          0.25 0.25 0.25 0.75 0.25 0.25
          0.25 0.75 0.25 0.75 0.75 0.25
          0.25 0.25 0.75 0.75 0.25 0.75
          0.25 0.75 0.75 0.75 0.75 0.75
        </DataArray>
      </Points>
      <Cells>
        <DataArray type="Int64" Name="connectivity" format="ascii" RangeMin="0" RangeMax="7">
          0 1 2 3 4 5
          6 7
        </DataArray>
        <DataArray type="Int64" Name="offsets" format="ascii" RangeMin="1" RangeMax="8">
          1 2 3 4 5 6
          7 8
        </DataArray>
        <DataArray type="UInt8" Name="types" format="ascii" RangeMin="1" RangeMax="1">
          1 1 1 1 1 1
          1 1
        </DataArray>
      </Cells>
    </Piece>
  </UnstructuredGrid>
</VTKFile>
