<?xml version="1.0"?>
<VTKFile type="UnstructuredGrid" version="0.1" byte_order="LittleEndian" compressor="vtkZLibDataCompressor">
  <UnstructuredGrid>
    <Piece NumberOfPoints="8" NumberOfCells="8">
      <PointData>
        <DataArray type="Float64" Name="Displacement" NumberOfComponents="3" format="ascii" RangeMin="0.18902034249" RangeMax="0.18902034249">
          0.088716189934 0.088716189934 -0.14137738561 -0.088716189934 0.088716189934 -0.14137738561
          0.088716189934 -0.088716189934 -0.14137738561 -0.088716189934 -0.088716189934 -0.14137738561
          0.088716189934 0.088716189934 0.14137738561 -0.088716189934 0.088716189934 0.14137738561
          0.088716189934 -0.088716189934 0.14137738561 -0.088716189934 -0.088716189934 0.14137738561
        </DataArray>
        <DataArray type="Float64" Name="Velocity" NumberOfComponents="3" format="ascii" RangeMin="54.40016066" RangeMax="54.40016066">
          24.539909155 24.539909155 41.892280878 -24.539909155 24.539909155 41.892280878
          24.539909155 -24.539909155 41.892280878 -24.539909155 -24.539909155 41.892280878
          24.539909155 24.539909155 -41.892280878 -24.539909155 24.539909155 -41.892280878
          24.539909155 -24.539909155 -41.892280878 -24.539909155 -24.539909155 -41.892280878
        </DataArray>
        <DataArray type="Float64" Name="Force Density" NumberOfComponents="3" format="ascii" RangeMin="8459.9171936" RangeMax="8459.9171936">
          3881.6560937 3881.6560937 6437.0560711 -3881.6560937 3881.6560937 6437.0560711
          3881.6560937 -3881.6560937 6437.0560711 -3881.6560937 -3881.6560937 6437.0560711
          3881.6560937 3881.6560937 -6437.0560711 -3881.6560937 3881.6560937 -6437.0560711
          3881.6560937 -3881.6560937 -6437.0560711 -3881.6560937 -3881.6560937 -6437.0560711
        </DataArray>
        <DataArray type="Int32" Name="Id" format="ascii" RangeMin="0" RangeMax="7">
          0 1 2 3 4 5
          6 7
        </DataArray>
        <DataArray type="Int32" Name="Proc_Num" format="ascii" RangeMin="0" RangeMax="0">
          0 0 0 0 0 0
          0 0
        </DataArray>
        <DataArray type="Float64" Name="Dilatation" format="ascii" RangeMin="0.018409413215" RangeMax="0.018409413215">
          0.018409413215 0.018409413215 0.018409413215 0.018409413215 0.018409413215 0.018409413215
          0.018409413215 0.018409413215
        </DataArray>
        <DataArray type="Float64" Name="Lambda" format="ascii" RangeMin="0.00085685622968" RangeMax="0.00085685622968">
          0.00085685622968 0.00085685622968 0.00085685622968 0.00085685622968 0.00085685622968 0.00085685622968
          0.00085685622968 0.00085685622968
        </DataArray>
      </PointData>
      <CellData>
      </CellData>
      <Points>
        <DataArray type="Float64" Name="Points" NumberOfComponents="3" format="ascii" RangeMin="0.43301270189" RangeMax="1.2990381057">
          0.25 0.25 0.25 0.75 0.25 0.25
          0.25 0.75 0.25 0.75 0.75 0.25
          0.25 0.25 0.75 0.75 0.25 0.75
          0.25 0.75 0.75 0.75 0.75 0.75
        </DataArray>
      </Points>
      <Cells>
        <DataArray type="Int64" Name="connectivity" format="ascii" RangeMin="0" RangeMax="7">
          0 1 2 3 4 5
          6 7
        </DataArray>
        <DataArray type="Int64" Name="offsets" format="ascii" RangeMin="1" RangeMax="8">
          1 2 3 4 5 6
          7 8
        </DataArray>
        <DataArray type="UInt8" Name="types" format="ascii" RangeMin="1" RangeMax="1">
          1 1 1 1 1 1
          1 1
        </DataArray>
      </Cells>
    </Piece>
  </UnstructuredGrid>
</VTKFile>
