<?xml version="1.0"?>
<VTKFile type="UnstructuredGrid" version="0.1" byte_order="LittleEndian" compressor="vtkZLibDataCompressor">
  <UnstructuredGrid>
    <Piece NumberOfPoints="8" NumberOfCells="8">
      <PointData>
        <DataArray type="Float64" Name="Displacement" NumberOfComponents="3" format="ascii" RangeMin="0.19056533175" RangeMax="0.19056533175">
          0.091166205598 0.091166205598 -0.14033029459 -0.091166205598 0.091166205598 -0.14033029459
          0.091166205598 -0.091166205598 -0.14033029459 -0.091166205598 -0.091166205598 -0.14033029459
          0.091166205598 0.091166205598 0.14033029459 -0.091166205598 0.091166205598 0.14033029459
          0.091166205598 -0.091166205598 0.14033029459 -0.091166205598 -0.091166205598 0.14033029459
        </DataArray>
        <DataArray type="Float64" Name="Velocity" NumberOfComponents="3" format="ascii" RangeMin="20.045133156" RangeMax="20.045133156">
          -8.2188805183 -8.2188805183 -16.331177829 8.2188805183 -8.2188805183 -16.331177829
          -8.2188805183 8.2188805183 -16.331177829 8.2188805183 8.2188805183 -16.331177829
          -8.2188805183 -8.2188805183 16.331177829 8.2188805183 -8.2188805183 16.331177829
          -8.2188805183 8.2188805183 16.331177829 8.2188805183 8.2188805183 16.331177829
        </DataArray>
        <DataArray type="Float64" Name="Force Density" NumberOfComponents="3" format="ascii" RangeMin="1118.6581608" RangeMax="1118.6581608">
          -460.24329604 -460.24329604 -909.80673641 460.24329604 -460.24329604 -909.80673641
          -460.24329604 460.24329604 -909.80673641 460.24329604 460.24329604 -909.80673641
          -460.24329604 -460.24329604 909.80673641 460.24329604 -460.24329604 909.80673641
          -460.24329604 460.24329604 909.80673641 460.24329604 460.24329604 909.80673641
        </DataArray>
        <DataArray type="Int32" Name="Id" format="ascii" RangeMin="0" RangeMax="7">
          0 1 2 3 4 5
          6 7
        </DataArray>
        <DataArray type="Int32" Name="Proc_Num" format="ascii" RangeMin="0" RangeMax="0">
          0 0 0 0 0 0
          0 0
        </DataArray>
        <DataArray type="Float64" Name="Dilatation" format="ascii" RangeMin="-0.0023815565371" RangeMax="-0.0023815565371">
          -0.0023815565371 -0.0023815565371 -0.0023815565371 -0.0023815565371 -0.0023815565371 -0.0023815565371
          -0.0023815565371 -0.0023815565371
        </DataArray>
        <DataArray type="Float64" Name="Lambda" format="ascii" RangeMin="0.001183655189" RangeMax="0.001183655189">
          0.001183655189 0.001183655189 0.001183655189 0.001183655189 0.001183655189 0.001183655189
          0.001183655189 0.001183655189
        </DataArray>
      </PointData>
      <CellData>
      </CellData>
      <Points>
        <DataArray type="Float64" Name="Points" NumberOfComponents="3" format="ascii" RangeMin="0.43301270189" RangeMax="1.2990381057">
          0.25 0.25 0.25 0.75 0.25 0.25
          0.25 0.75 0.25 0.75 0.75 0.25
          0.25 0.25 0.75 0.75 0.25 0.75
          0.25 0.75 0.75 0.75 0.75 0.75
        </DataArray>
      </Points>
      <Cells>
        <DataArray type="Int64" Name="connectivity" format="ascii" RangeMin="0" RangeMax="7">
          0 1 2 3 4 5
          6 7
        </DataArray>
        <DataArray type="Int64" Name="offsets" format="ascii" RangeMin="1" RangeMax="8">
          1 2 3 4 5 6
          7 8
        </DataArray>
        <DataArray type="UInt8" Name="types" format="ascii" RangeMin="1" RangeMax="1">
          1 1 1 1 1 1
          1 1
        </DataArray>
      </Cells>
    </Piece>
  </UnstructuredGrid>
</VTKFile>
