<?xml version="1.0"?>
<VTKFile type="UnstructuredGrid" version="0.1" byte_order="LittleEndian" compressor="vtkZLibDataCompressor">
  <UnstructuredGrid>
    <Piece NumberOfPoints="8" NumberOfCells="8">
      <PointData>
        <DataArray type="Float64" Name="Displacement" NumberOfComponents="3" format="ascii" RangeMin="0.19038376078" RangeMax="0.19038376078">
          0.091542583527 0.091542583527 -0.13959185926 -0.091542583527 0.091542583527 -0.13959185926
          0.091542583527 -0.091542583527 -0.13959185926 -0.091542583527 -0.091542583527 -0.13959185926
          0.091542583527 0.091542583527 0.13959185926 -0.091542583527 0.091542583527 0.13959185926
          0.091542583527 -0.091542583527 0.13959185926 -0.091542583527 -0.091542583527 0.13959185926
        </DataArray>
        <DataArray type="Float64" Name="Velocity" NumberOfComponents="3" format="ascii" RangeMin="21.958702029" RangeMax="21.958702029">
          -8.8756048438 -8.8756048438 -18.017543454 8.8756048438 -8.8756048438 -18.017543454
          -8.8756048438 8.8756048438 -18.017543454 8.8756048438 8.8756048438 -18.017543454
          -8.8756048438 -8.8756048438 18.017543454 8.8756048438 -8.8756048438 18.017543454
          -8.8756048438 8.8756048438 18.017543454 8.8756048438 8.8756048438 18.017543454
        </DataArray>
        <DataArray type="Float64" Name="Force Density" NumberOfComponents="3" format="ascii" RangeMin="3941.6544318" RangeMax="3941.6544318">
          -1749.3355838 -1749.3355838 -3068.5973491 1749.3355838 -1749.3355838 -3068.5973491
          -1749.3355838 1749.3355838 -3068.5973491 1749.3355838 1749.3355838 -3068.5973491
          -1749.3355838 -1749.3355838 3068.5973491 1749.3355838 -1749.3355838 3068.5973491
          -1749.3355838 1749.3355838 3068.5973491 1749.3355838 1749.3355838 3068.5973491
        </DataArray>
        <DataArray type="Int32" Name="Id" format="ascii" RangeMin="0" RangeMax="7">
          0 1 2 3 4 5
          6 7
        </DataArray>
        <DataArray type="Int32" Name="Proc_Num" format="ascii" RangeMin="0" RangeMax="0">
          0 0 0 0 0 0
          0 0
        </DataArray>
        <DataArray type="Float64" Name="Dilatation" format="ascii" RangeMin="-0.0085296827103" RangeMax="-0.0085296827103">
          -0.0085296827103 -0.0085296827103 -0.0085296827103 -0.0085296827103 -0.0085296827103 -0.0085296827103
          -0.0085296827103 -0.0085296827103
        </DataArray>
        <DataArray type="Float64" Name="Lambda" format="ascii" RangeMin="0.0011307841366" RangeMax="0.0011307841366">
          0.0011307841366 0.0011307841366 0.0011307841366 0.0011307841366 0.0011307841366 0.0011307841366
          0.0011307841366 0.0011307841366
        </DataArray>
      </PointData>
      <CellData>
      </CellData>
      <Points>
        <DataArray type="Float64" Name="Points" NumberOfComponents="3" format="ascii" RangeMin="0.43301270189" RangeMax="1.2990381057">
          0.25 0.25 0.25 0.75 0.25 0.25
          0.25 0.75 0.25 0.75 0.75 0.25
          0.25 0.25 0.75 0.75 0.25 0.75
          0.25 0.75 0.75 0.75 0.75 0.75
        </DataArray>
      </Points>
      <Cells>
        <DataArray type="Int64" Name="connectivity" format="ascii" RangeMin="0" RangeMax="7">
          0 1 2 3 4 5
          6 7
        </DataArray>
        <DataArray type="Int64" Name="offsets" format="ascii" RangeMin="1" RangeMax="8">
          1 2 3 4 5 6
          7 8
        </DataArray>
        <DataArray type="UInt8" Name="types" format="ascii" RangeMin="1" RangeMax="1">
          1 1 1 1 1 1
          1 1
        </DataArray>
      </Cells>
    </Piece>
  </UnstructuredGrid>
</VTKFile>
