<?xml version="1.0"?>
<VTKFile type="UnstructuredGrid" version="0.1" byte_order="LittleEndian" compressor="vtkZLibDataCompressor">
  <UnstructuredGrid>
    <Piece NumberOfPoints="8" NumberOfCells="8">
      <PointData>
        <DataArray type="Float64" Name="Displacement" NumberOfComponents="3" format="ascii" RangeMin="0.19073470584" RangeMax="0.19073470584">
          0.090835237859 0.090835237859 -0.14098810992 -0.090835237859 0.090835237859 -0.14098810992
          0.090835237859 -0.090835237859 -0.14098810992 -0.090835237859 -0.090835237859 -0.14098810992
          0.090835237859 0.090835237859 0.14098810992 -0.090835237859 0.090835237859 0.14098810992
          0.090835237859 -0.090835237859 0.14098810992 -0.090835237859 -0.090835237859 0.14098810992
        </DataArray>
        <DataArray type="Float64" Name="Velocity" NumberOfComponents="3" format="ascii" RangeMin="17.259057389" RangeMax="17.259057389">
          7.0826269966 7.0826269966 14.055171704 -7.0826269966 7.0826269966 14.055171704
          7.0826269966 -7.0826269966 14.055171704 -7.0826269966 -7.0826269966 14.055171704
          7.0826269966 7.0826269966 -14.055171704 -7.0826269966 7.0826269966 -14.055171704
          7.0826269966 -7.0826269966 -14.055171704 -7.0826269966 -7.0826269966 -14.055171704
        </DataArray>
        <DataArray type="Float64" Name="Force Density" NumberOfComponents="3" format="ascii" RangeMin="1442.051351" RangeMax="1442.051351">
          591.75957949 591.75957949 1174.3735772 -591.75957949 591.75957949 1174.3735772
          591.75957949 -591.75957949 1174.3735772 -591.75957949 -591.75957949 1174.3735772
          591.75957949 591.75957949 -1174.3735772 -591.75957949 591.75957949 -1174.3735772
          591.75957949 -591.75957949 -1174.3735772 -591.75957949 -591.75957949 -1174.3735772
        </DataArray>
        <DataArray type="Int32" Name="Id" format="ascii" RangeMin="0" RangeMax="7">
          0 1 2 3 4 5
          6 7
        </DataArray>
        <DataArray type="Int32" Name="Proc_Num" format="ascii" RangeMin="0" RangeMax="0">
          0 0 0 0 0 0
          0 0
        </DataArray>
        <DataArray type="Float64" Name="Dilatation" format="ascii" RangeMin="0.0030682359572" RangeMax="0.0030682359572">
          0.0030682359572 0.0030682359572 0.0030682359572 0.0030682359572 0.0030682359572 0.0030682359572
          0.0030682359572 0.0030682359572
        </DataArray>
        <DataArray type="Float64" Name="Lambda" format="ascii" RangeMin="0.0011838741289" RangeMax="0.0011838741289">
          0.0011838741289 0.0011838741289 0.0011838741289 0.0011838741289 0.0011838741289 0.0011838741289
          0.0011838741289 0.0011838741289
        </DataArray>
      </PointData>
      <CellData>
      </CellData>
      <Points>
        <DataArray type="Float64" Name="Points" NumberOfComponents="3" format="ascii" RangeMin="0.43301270189" RangeMax="1.2990381057">
          0.25 0.25 0.25 0.75 0.25 0.25
          0.25 0.75 0.25 0.75 0.75 0.25
          0.25 0.25 0.75 0.75 0.25 0.75
          0.25 0.75 0.75 0.75 0.75 0.75
        </DataArray>
      </Points>
      <Cells>
        <DataArray type="Int64" Name="connectivity" format="ascii" RangeMin="0" RangeMax="7">
          0 1 2 3 4 5
          6 7
        </DataArray>
        <DataArray type="Int64" Name="offsets" format="ascii" RangeMin="1" RangeMax="8">
          1 2 3 4 5 6
          7 8
        </DataArray>
        <DataArray type="UInt8" Name="types" format="ascii" RangeMin="1" RangeMax="1">
          1 1 1 1 1 1
          1 1
        </DataArray>
      </Cells>
    </Piece>
  </UnstructuredGrid>
</VTKFile>
