<?xml version="1.0"?>
<VTKFile type="UnstructuredGrid" version="0.1" byte_order="LittleEndian" compressor="vtkZLibDataCompressor">
  <UnstructuredGrid>
    <Piece NumberOfPoints="8" NumberOfCells="8">
      <PointData>
        <DataArray type="Float64" Name="Displacement" NumberOfComponents="3" format="ascii" RangeMin="0.19057683502" RangeMax="0.19057683502">
          0.091144907664 0.091144907664 -0.14037357892 -0.091144907664 0.091144907664 -0.14037357892
          0.091144907664 -0.091144907664 -0.14037357892 -0.091144907664 -0.091144907664 -0.14037357892
          0.091144907664 0.091144907664 0.14037357892 -0.091144907664 0.091144907664 0.14037357892
          0.091144907664 -0.091144907664 0.14037357892 -0.091144907664 -0.091144907664 0.14037357892
        </DataArray>
        <DataArray type="Float64" Name="Velocity" NumberOfComponents="3" format="ascii" RangeMin="20.850878207" RangeMax="20.850878207">
          -8.5560315986 -8.5560315986 -16.980805887 8.5560315986 -8.5560315986 -16.980805887
          -8.5560315986 8.5560315986 -16.980805887 8.5560315986 8.5560315986 -16.980805887
          -8.5560315986 -8.5560315986 16.980805887 8.5560315986 -8.5560315986 16.980805887
          -8.5560315986 8.5560315987 16.980805887 8.5560315986 8.5560315986 16.980805887
        </DataArray>
        <DataArray type="Float64" Name="Force Density" NumberOfComponents="3" format="ascii" RangeMin="952.18278631" RangeMax="952.18278631">
          -390.77323293 -390.77323293 -775.39965141 390.77323293 -390.77323293 -775.39965141
          -390.77323293 390.77323293 -775.39965141 390.77323293 390.77323293 -775.39965141
          -390.77323293 -390.77323293 775.39965141 390.77323293 -390.77323293 775.39965141
          -390.77323293 390.77323293 775.39965141 390.77323293 390.77323293 775.39965141
        </DataArray>
        <DataArray type="Int32" Name="Id" format="ascii" RangeMin="0" RangeMax="7">
          0 1 2 3 4 5
          6 7
        </DataArray>
        <DataArray type="Int32" Name="Proc_Num" format="ascii" RangeMin="0" RangeMax="0">
          0 0 0 0 0 0
          0 0
        </DataArray>
        <DataArray type="Float64" Name="Dilatation" format="ascii" RangeMin="-0.0020259777385" RangeMax="-0.0020259777385">
          -0.0020259777385 -0.0020259777385 -0.0020259777385 -0.0020259777385 -0.0020259777385 -0.0020259777385
          -0.0020259777385 -0.0020259777385
        </DataArray>
        <DataArray type="Float64" Name="Lambda" format="ascii" RangeMin="0.0011838736564" RangeMax="0.0011838736564">
          0.0011838736564 0.0011838736564 0.0011838736564 0.0011838736564 0.0011838736564 0.0011838736564
          0.0011838736564 0.0011838736564
        </DataArray>
      </PointData>
      <CellData>
      </CellData>
      <Points>
        <DataArray type="Float64" Name="Points" NumberOfComponents="3" format="ascii" RangeMin="0.43301270189" RangeMax="1.2990381057">
          0.25 0.25 0.25 0.75 0.25 0.25
          0.25 0.75 0.25 0.75 0.75 0.25
          0.25 0.25 0.75 0.75 0.25 0.75
          0.25 0.75 0.75 0.75 0.75 0.75
        </DataArray>
      </Points>
      <Cells>
        <DataArray type="Int64" Name="connectivity" format="ascii" RangeMin="0" RangeMax="7">
          0 1 2 3 4 5
          6 7
        </DataArray>
        <DataArray type="Int64" Name="offsets" format="ascii" RangeMin="1" RangeMax="8">
          1 2 3 4 5 6
          7 8
        </DataArray>
        <DataArray type="UInt8" Name="types" format="ascii" RangeMin="1" RangeMax="1">
          1 1 1 1 1 1
          1 1
        </DataArray>
      </Cells>
    </Piece>
  </UnstructuredGrid>
</VTKFile>
