<?xml version="1.0"?>
<VTKFile type="UnstructuredGrid" version="0.1" byte_order="LittleEndian" compressor="vtkZLibDataCompressor">
  <UnstructuredGrid>
    <Piece NumberOfPoints="8" NumberOfCells="8">
      <PointData>
        <DataArray type="Float64" Name="Displacement" NumberOfComponents="3" format="ascii" RangeMin="0.19046072561" RangeMax="0.19046072561">
          0.091270088566 0.091270088566 -0.14005295379 -0.091270088566 0.091270088566 -0.14005295379
          0.091270088566 -0.091270088566 -0.14005295379 -0.091270088566 -0.091270088566 -0.14005295379
          0.091270088566 0.091270088566 0.14005295379 -0.091270088566 0.091270088566 0.14005295379
          0.091270088566 -0.091270088566 0.14005295379 -0.091270088566 -0.091270088566 0.14005295379
        </DataArray>
        <DataArray type="Float64" Name="Velocity" NumberOfComponents="3" format="ascii" RangeMin="31.897761323" RangeMax="31.897761323">
          14.24425023 14.24425023 24.731960056 -14.24425023 14.24425023 24.731960056
          14.24425023 -14.24425023 24.731960056 -14.24425023 -14.24425023 24.731960056
          14.24425023 14.24425023 -24.731960056 -14.24425023 14.24425023 -24.731960056
          14.24425023 -14.24425023 -24.731960056 -14.24425023 -14.24425023 -24.731960056
        </DataArray>
        <DataArray type="Float64" Name="Force Density" NumberOfComponents="3" format="ascii" RangeMin="2095.5592995" RangeMax="2095.5592995">
          -856.82955035 -856.82955035 -1709.6944233 856.82955035 -856.82955035 -1709.6944233
          -856.82955035 856.82955035 -1709.6944233 856.82955035 856.82955035 -1709.6944233
          -856.82955035 -856.82955035 1709.6944233 856.82955035 -856.82955035 1709.6944233
          -856.82955035 856.82955035 1709.6944233 856.82955035 856.82955035 1709.6944233
        </DataArray>
        <DataArray type="Int32" Name="Id" format="ascii" RangeMin="0" RangeMax="7">
          0 1 2 3 4 5
          6 7
        </DataArray>
        <DataArray type="Int32" Name="Proc_Num" format="ascii" RangeMin="0" RangeMax="0">
          0 0 0 0 0 0
          0 0
        </DataArray>
        <DataArray type="Float64" Name="Dilatation" format="ascii" RangeMin="-0.0044550289766" RangeMax="-0.0044550289766">
          -0.0044550289766 -0.0044550289766 -0.0044550289766 -0.0044550289766 -0.0044550289766 -0.0044550289766
          -0.0044550289766 -0.0044550289766
        </DataArray>
        <DataArray type="Float64" Name="Lambda" format="ascii" RangeMin="0.0011541874511" RangeMax="0.0011541874511">
          0.0011541874511 0.0011541874511 0.0011541874511 0.0011541874511 0.0011541874511 0.0011541874511
          0.0011541874511 0.0011541874511
        </DataArray>
      </PointData>
      <CellData>
      </CellData>
      <Points>
        <DataArray type="Float64" Name="Points" NumberOfComponents="3" format="ascii" RangeMin="0.43301270189" RangeMax="1.2990381057">
          0.25 0.25 0.25 0.75 0.25 0.25
          0.25 0.75 0.25 0.75 0.75 0.25
          0.25 0.25 0.75 0.75 0.25 0.75
          0.25 0.75 0.75 0.75 0.75 0.75
        </DataArray>
      </Points>
      <Cells>
        <DataArray type="Int64" Name="connectivity" format="ascii" RangeMin="0" RangeMax="7">
          0 1 2 3 4 5
          6 7
        </DataArray>
        <DataArray type="Int64" Name="offsets" format="ascii" RangeMin="1" RangeMax="8">
          1 2 3 4 5 6
          7 8
        </DataArray>
        <DataArray type="UInt8" Name="types" format="ascii" RangeMin="1" RangeMax="1">
          1 1 1 1 1 1
          1 1
        </DataArray>
      </Cells>
    </Piece>
  </UnstructuredGrid>
</VTKFile>
