<?xml version="1.0"?>
<VTKFile type="UnstructuredGrid" version="0.1" byte_order="LittleEndian" compressor="vtkZLibDataCompressor">
  <UnstructuredGrid>
    <Piece NumberOfPoints="8" NumberOfCells="8">
      <PointData>
        <DataArray type="Float64" Name="Displacement" NumberOfComponents="3" format="ascii" RangeMin="0.19077713816" RangeMax="0.19077713816">
          0.090752998284 0.090752998284 -0.14115134803 -0.090752998284 0.090752998284 -0.14115134803
          0.090752998284 -0.090752998284 -0.14115134803 -0.090752998284 -0.090752998284 -0.14115134803
          0.090752998284 0.090752998284 0.14115134803 -0.090752998284 0.090752998284 0.14115134803
          0.090752998284 -0.090752998284 0.14115134803 -0.090752998284 -0.090752998284 0.14115134803
        </DataArray>
        <DataArray type="Float64" Name="Velocity" NumberOfComponents="3" format="ascii" RangeMin="6.0538548782" RangeMax="6.0538548782">
          2.4842984009 2.4842984009 4.9300792891 -2.4842984009 2.4842984009 4.9300792891
          2.4842984009 -2.4842984009 4.9300792891 -2.4842984009 -2.4842984009 4.930079289
          2.4842984009 2.4842984009 -4.9300792891 -2.4842984009 2.4842984009 -4.9300792891
          2.4842984009 -2.4842984009 -4.930079289 -2.4842984009 -2.4842984009 -4.930079289
        </DataArray>
        <DataArray type="Float64" Name="Force Density" NumberOfComponents="3" format="ascii" RangeMin="2077.9896373" RangeMax="2077.9896373">
          852.76967856 852.76967856 1692.2200458 -852.76967856 852.76967857 1692.2200458
          852.76967857 -852.76967856 1692.2200458 -852.76967857 -852.76967857 1692.2200458
          852.76967857 852.76967857 -1692.2200458 -852.76967856 852.76967857 -1692.2200458
          852.76967857 -852.76967856 -1692.2200458 -852.76967857 -852.76967857 -1692.2200458
        </DataArray>
        <DataArray type="Int32" Name="Id" format="ascii" RangeMin="0" RangeMax="7">
          0 1 2 3 4 5
          6 7
        </DataArray>
        <DataArray type="Int32" Name="Proc_Num" format="ascii" RangeMin="0" RangeMax="0">
          0 0 0 0 0 0
          0 0
        </DataArray>
        <DataArray type="Float64" Name="Dilatation" format="ascii" RangeMin="0.0044213067197" RangeMax="0.0044213067197">
          0.0044213067197 0.0044213067197 0.0044213067197 0.0044213067197 0.0044213067197 0.0044213067197
          0.0044213067197 0.0044213067197
        </DataArray>
        <DataArray type="Float64" Name="Lambda" format="ascii" RangeMin="0.0011838740378" RangeMax="0.0011838740378">
          0.0011838740378 0.0011838740378 0.0011838740378 0.0011838740378 0.0011838740378 0.0011838740378
          0.0011838740378 0.0011838740378
        </DataArray>
      </PointData>
      <CellData>
      </CellData>
      <Points>
        <DataArray type="Float64" Name="Points" NumberOfComponents="3" format="ascii" RangeMin="0.43301270189" RangeMax="1.2990381057">
          0.25 0.25 0.25 0.75 0.25 0.25
          0.25 0.75 0.25 0.75 0.75 0.25
          0.25 0.25 0.75 0.75 0.25 0.75
          0.25 0.75 0.75 0.75 0.75 0.75
        </DataArray>
      </Points>
      <Cells>
        <DataArray type="Int64" Name="connectivity" format="ascii" RangeMin="0" RangeMax="7">
          0 1 2 3 4 5
          6 7
        </DataArray>
        <DataArray type="Int64" Name="offsets" format="ascii" RangeMin="1" RangeMax="8">
          1 2 3 4 5 6
          7 8
        </DataArray>
        <DataArray type="UInt8" Name="types" format="ascii" RangeMin="1" RangeMax="1">
          1 1 1 1 1 1
          1 1
        </DataArray>
      </Cells>
    </Piece>
  </UnstructuredGrid>
</VTKFile>
