<?xml version="1.0"?>
<VTKFile type="UnstructuredGrid" version="0.1" byte_order="LittleEndian" compressor="vtkZLibDataCompressor">
  <UnstructuredGrid>
    <Piece NumberOfPoints="8" NumberOfCells="8">
      <PointData>
        <DataArray type="Float64" Name="Displacement" NumberOfComponents="3" format="ascii" RangeMin="0.19078491149" RangeMax="0.19078491149">
          0.09068817598 0.09068817598 -0.14124514833 -0.09068817598 0.09068817598 -0.14124514833
          0.09068817598 -0.09068817598 -0.14124514833 -0.09068817598 -0.09068817598 -0.14124514833
          0.09068817598 0.09068817598 0.14124514833 -0.09068817598 0.09068817598 0.14124514833
          0.09068817598 -0.09068817598 0.14124514833 -0.09068817598 -0.09068817598 0.14124514833
        </DataArray>
        <DataArray type="Float64" Name="Velocity" NumberOfComponents="3" format="ascii" RangeMin="4.7809406848" RangeMax="4.7809406848">
          1.7213870035 1.7213870035 4.1147353986 -1.7213870035 1.7213870035 4.1147353986
          1.7213870035 -1.7213870035 4.1147353986 -1.7213870035 -1.7213870035 4.1147353986
          1.7213870035 1.7213870035 -4.1147353986 -1.7213870035 1.7213870035 -4.1147353986
          1.7213870035 -1.7213870035 -4.1147353986 -1.7213870035 -1.7213870035 -4.1147353986
        </DataArray>
        <DataArray type="Float64" Name="Force Density" NumberOfComponents="3" format="ascii" RangeMin="2483.4871386" RangeMax="2483.4871386">
          1041.2550843 1041.2550843 1999.8210086 -1041.2550843 1041.2550843 1999.8210086
          1041.2550843 -1041.2550843 1999.8210086 -1041.2550843 -1041.2550843 1999.8210086
          1041.2550843 1041.2550843 -1999.8210086 -1041.2550843 1041.2550843 -1999.8210086
          1041.2550843 -1041.2550843 -1999.8210086 -1041.2550843 -1041.2550843 -1999.8210086
        </DataArray>
        <DataArray type="Int32" Name="Id" format="ascii" RangeMin="0" RangeMax="7">
          0 1 2 3 4 5
          6 7
        </DataArray>
        <DataArray type="Int32" Name="Proc_Num" format="ascii" RangeMin="0" RangeMax="0">
          0 0 0 0 0 0
          0 0
        </DataArray>
        <DataArray type="Float64" Name="Dilatation" format="ascii" RangeMin="0.0053092819468" RangeMax="0.0053092819468">
          0.0053092819468 0.0053092819468 0.0053092819468 0.0053092819468 0.0053092819468 0.0053092819468
          0.0053092819468 0.0053092819468
        </DataArray>
        <DataArray type="Float64" Name="Lambda" format="ascii" RangeMin="0.0011777996385" RangeMax="0.0011777996385">
          0.0011777996385 0.0011777996385 0.0011777996385 0.0011777996385 0.0011777996385 0.0011777996385
          0.0011777996385 0.0011777996385
        </DataArray>
      </PointData>
      <CellData>
      </CellData>
      <Points>
        <DataArray type="Float64" Name="Points" NumberOfComponents="3" format="ascii" RangeMin="0.43301270189" RangeMax="1.2990381057">
          0.25 0.25 0.25 0.75 0.25 0.25
          0.25 0.75 0.25 0.75 0.75 0.25
          0.25 0.25 0.75 0.75 0.25 0.75
          0.25 0.75 0.75 0.75 0.75 0.75
        </DataArray>
      </Points>
      <Cells>
        <DataArray type="Int64" Name="connectivity" format="ascii" RangeMin="0" RangeMax="7">
          0 1 2 3 4 5
          6 7
        </DataArray>
        <DataArray type="Int64" Name="offsets" format="ascii" RangeMin="1" RangeMax="8">
          1 2 3 4 5 6
          7 8
        </DataArray>
        <DataArray type="UInt8" Name="types" format="ascii" RangeMin="1" RangeMax="1">
          1 1 1 1 1 1
          1 1
        </DataArray>
      </Cells>
    </Piece>
  </UnstructuredGrid>
</VTKFile>
