<?xml version="1.0"?>
<VTKFile type="UnstructuredGrid" version="0.1" byte_order="LittleEndian" compressor="vtkZLibDataCompressor">
  <UnstructuredGrid>
    <Piece NumberOfPoints="8" NumberOfCells="8">
      <PointData>
        <DataArray type="Float64" Name="Displacement" NumberOfComponents="3" format="ascii" RangeMin="0.19019762194" RangeMax="0.19019762194">
          0.089392335294 0.089392335294 -0.1421026255 -0.089392335294 0.089392335294 -0.1421026255
          0.089392335294 -0.089392335294 -0.1421026255 -0.089392335294 -0.089392335294 -0.1421026255
          0.089392335294 0.089392335294 0.1421026255 -0.089392335294 0.089392335294 0.1421026255
          0.089392335294 -0.089392335294 0.1421026255 -0.089392335294 -0.089392335294 0.1421026255
        </DataArray>
        <DataArray type="Float64" Name="Velocity" NumberOfComponents="3" format="ascii" RangeMin="6.6692015369" RangeMax="6.6692015369">
          -3.8175174597 -3.8175174597 -3.9155293422 3.8175174597 -3.8175174597 -3.9155293422
          -3.8175174597 3.8175174597 -3.9155293422 3.8175174597 3.8175174597 -3.9155293422
          -3.8175174597 -3.8175174597 3.9155293422 3.8175174597 -3.8175174597 3.9155293422
          -3.8175174597 3.8175174597 3.9155293422 3.8175174597 3.8175174597 3.9155293422
        </DataArray>
        <DataArray type="Float64" Name="Force Density" NumberOfComponents="3" format="ascii" RangeMin="8228.538786" RangeMax="8228.538786">
          3711.6270607 3711.6270607 6336.9156281 -3711.6270607 3711.6270607 6336.9156281
          3711.6270607 -3711.6270607 6336.9156281 -3711.6270607 -3711.6270607 6336.9156281
          3711.6270607 3711.6270607 -6336.9156281 -3711.6270607 3711.6270607 -6336.9156281
          3711.6270607 -3711.6270607 -6336.9156281 -3711.6270607 -3711.6270607 -6336.9156281
        </DataArray>
        <DataArray type="Int32" Name="Id" format="ascii" RangeMin="0" RangeMax="7">
          0 1 2 3 4 5
          6 7
        </DataArray>
        <DataArray type="Int32" Name="Proc_Num" format="ascii" RangeMin="0" RangeMax="0">
          0 0 0 0 0 0
          0 0
        </DataArray>
        <DataArray type="Float64" Name="Dilatation" format="ascii" RangeMin="0.017854767988" RangeMax="0.017854767988">
          0.017854767988 0.017854767988 0.017854767988 0.017854767988 0.017854767988 0.017854767988
          0.017854767988 0.017854767988
        </DataArray>
        <DataArray type="Float64" Name="Lambda" format="ascii" RangeMin="0.00095903834722" RangeMax="0.00095903834722">
          0.00095903834722 0.00095903834722 0.00095903834722 0.00095903834722 0.00095903834722 0.00095903834722
          0.00095903834722 0.00095903834722
        </DataArray>
      </PointData>
      <CellData>
      </CellData>
      <Points>
        <DataArray type="Float64" Name="Points" NumberOfComponents="3" format="ascii" RangeMin="0.43301270189" RangeMax="1.2990381057">
          0.25 0.25 0.25 0.75 0.25 0.25
          0.25 0.75 0.25 0.75 0.75 0.25
          0.25 0.25 0.75 0.75 0.25 0.75
          0.25 0.75 0.75 0.75 0.75 0.75
        </DataArray>
      </Points>
      <Cells>
        <DataArray type="Int64" Name="connectivity" format="ascii" RangeMin="0" RangeMax="7">
          0 1 2 3 4 5
          6 7
        </DataArray>
        <DataArray type="Int64" Name="offsets" format="ascii" RangeMin="1" RangeMax="8">
          1 2 3 4 5 6
          7 8
        </DataArray>
        <DataArray type="UInt8" Name="types" format="ascii" RangeMin="1" RangeMax="1">
          1 1 1 1 1 1
          1 1
        </DataArray>
      </Cells>
    </Piece>
  </UnstructuredGrid>
</VTKFile>
