<?xml version="1.0"?>
<VTKFile type="UnstructuredGrid" version="0.1" byte_order="LittleEndian" compressor="vtkZLibDataCompressor">
  <UnstructuredGrid>
    <Piece NumberOfPoints="8" NumberOfCells="8">
      <PointData>
        <DataArray type="Float64" Name="Displacement" NumberOfComponents="3" format="ascii" RangeMin="0.19045845059" RangeMax="0.19045845059">
          0.09138079974 0.09138079974 -0.13990539761 -0.09138079974 0.09138079974 -0.13990539761
          0.09138079974 -0.09138079974 -0.13990539761 -0.09138079974 -0.09138079974 -0.13990539761
          0.09138079974 0.09138079974 0.13990539761 -0.09138079974 0.09138079974 0.13990539761
          0.09138079974 -0.09138079974 0.13990539761 -0.09138079974 -0.09138079974 0.13990539761
        </DataArray>
        <DataArray type="Float64" Name="Velocity" NumberOfComponents="3" format="ascii" RangeMin="1.9017996299" RangeMax="1.9017996299">
          1.1360052235 1.1360052235 1.0177554209 -1.1360052235 1.1360052235 1.0177554209
          1.1360052235 -1.1360052235 1.0177554209 -1.1360052235 -1.1360052235 1.0177554209
          1.1360052235 1.1360052235 -1.0177554209 -1.1360052235 1.1360052235 -1.0177554209
          1.1360052235 -1.1360052235 -1.0177554209 -1.1360052235 -1.1360052235 -1.0177554209
        </DataArray>
        <DataArray type="Float64" Name="Force Density" NumberOfComponents="3" format="ascii" RangeMin="2758.1590867" RangeMax="2758.1590867">
          -1165.2019205 -1165.2019205 -2211.7980279 1165.2019205 -1165.2019205 -2211.7980279
          -1165.2019205 1165.2019205 -2211.7980279 1165.2019205 1165.2019205 -2211.7980279
          -1165.2019205 -1165.2019205 2211.7980279 1165.2019205 -1165.2019205 2211.7980279
          -1165.2019205 1165.2019205 2211.7980279 1165.2019205 1165.2019205 2211.7980279
        </DataArray>
        <DataArray type="Int32" Name="Id" format="ascii" RangeMin="0" RangeMax="7">
          0 1 2 3 4 5
          6 7
        </DataArray>
        <DataArray type="Int32" Name="Proc_Num" format="ascii" RangeMin="0" RangeMax="0">
          0 0 0 0 0 0
          0 0
        </DataArray>
        <DataArray type="Float64" Name="Dilatation" format="ascii" RangeMin="-0.0059067936642" RangeMax="-0.0059067936642">
          -0.0059067936642 -0.0059067936642 -0.0059067936642 -0.0059067936642 -0.0059067936642 -0.0059067936642
          -0.0059067936642 -0.0059067936642
        </DataArray>
        <DataArray type="Float64" Name="Lambda" format="ascii" RangeMin="0.0011733188408" RangeMax="0.0011733188408">
          0.0011733188408 0.0011733188408 0.0011733188408 0.0011733188408 0.0011733188408 0.0011733188408
          0.0011733188408 0.0011733188408
        </DataArray>
      </PointData>
      <CellData>
      </CellData>
      <Points>
        <DataArray type="Float64" Name="Points" NumberOfComponents="3" format="ascii" RangeMin="0.43301270189" RangeMax="1.2990381057">
          0.25 0.25 0.25 0.75 0.25 0.25
          0.25 0.75 0.25 0.75 0.75 0.25
          0.25 0.25 0.75 0.75 0.25 0.75
          0.25 0.75 0.75 0.75 0.75 0.75
        </DataArray>
      </Points>
      <Cells>
        <DataArray type="Int64" Name="connectivity" format="ascii" RangeMin="0" RangeMax="7">
          0 1 2 3 4 5
          6 7
        </DataArray>
        <DataArray type="Int64" Name="offsets" format="ascii" RangeMin="1" RangeMax="8">
          1 2 3 4 5 6
          7 8
        </DataArray>
        <DataArray type="UInt8" Name="types" format="ascii" RangeMin="1" RangeMax="1">
          1 1 1 1 1 1
          1 1
        </DataArray>
      </Cells>
    </Piece>
  </UnstructuredGrid>
</VTKFile>
