<?xml version="1.0"?>
<VTKFile type="UnstructuredGrid" version="0.1" byte_order="LittleEndian" compressor="vtkZLibDataCompressor">
  <UnstructuredGrid>
    <Piece NumberOfPoints="8" NumberOfCells="8">
      <PointData>
        <DataArray type="Float64" Name="Displacement" NumberOfComponents="3" format="ascii" RangeMin="0.19050680994" RangeMax="0.19050680994">
          0.091280830972 0.091280830972 -0.14010162179 -0.091280830972 0.091280830972 -0.14010162179
          0.091280830972 -0.091280830972 -0.14010162179 -0.091280830972 -0.091280830972 -0.14010162179
          0.091280830972 0.091280830972 0.14010162179 -0.091280830972 0.091280830972 0.14010162179
          0.091280830972 -0.091280830972 0.14010162179 -0.091280830972 -0.091280830972 0.14010162179
        </DataArray>
        <DataArray type="Float64" Name="Velocity" NumberOfComponents="3" format="ascii" RangeMin="10.149677361" RangeMax="10.149677361">
          -4.1156940279 -4.1156940279 -8.3149308996 4.1156940279 -4.1156940279 -8.3149308996
          -4.1156940279 4.1156940279 -8.3149308996 4.1156940279 4.1156940279 -8.3149308996
          -4.1156940279 -4.1156940279 8.3149308996 4.1156940279 -4.1156940279 8.3149308996
          -4.1156940279 4.1156940279 8.3149308996 4.1156940279 4.1156940279 8.3149308996
        </DataArray>
        <DataArray type="Float64" Name="Force Density" NumberOfComponents="3" format="ascii" RangeMin="2006.0949533" RangeMax="2006.0949533">
          -827.40954799 -827.40954799 -1629.4796229 827.40954799 -827.40954799 -1629.4796229
          -827.40954799 827.40954799 -1629.4796229 827.40954799 827.40954799 -1629.4796229
          -827.40954799 -827.40954799 1629.4796229 827.40954799 -827.40954799 1629.4796229
          -827.40954799 827.40954799 1629.4796229 827.40954799 827.40954799 1629.4796229
        </DataArray>
        <DataArray type="Int32" Name="Id" format="ascii" RangeMin="0" RangeMax="7">
          0 1 2 3 4 5
          6 7
        </DataArray>
        <DataArray type="Int32" Name="Proc_Num" format="ascii" RangeMin="0" RangeMax="0">
          0 0 0 0 0 0
          0 0
        </DataArray>
        <DataArray type="Float64" Name="Dilatation" format="ascii" RangeMin="-0.0042733419389" RangeMax="-0.0042733419389">
          -0.0042733419389 -0.0042733419389 -0.0042733419389 -0.0042733419389 -0.0042733419389 -0.0042733419389
          -0.0042733419389 -0.0042733419389
        </DataArray>
        <DataArray type="Float64" Name="Lambda" format="ascii" RangeMin="0.0011829100085" RangeMax="0.0011829100085">
          0.0011829100085 0.0011829100085 0.0011829100085 0.0011829100085 0.0011829100085 0.0011829100085
          0.0011829100085 0.0011829100085
        </DataArray>
      </PointData>
      <CellData>
      </CellData>
      <Points>
        <DataArray type="Float64" Name="Points" NumberOfComponents="3" format="ascii" RangeMin="0.43301270189" RangeMax="1.2990381057">
          0.25 0.25 0.25 0.75 0.25 0.25
          0.25 0.75 0.25 0.75 0.75 0.25
          0.25 0.25 0.75 0.75 0.25 0.75
          0.25 0.75 0.75 0.75 0.75 0.75
        </DataArray>
      </Points>
      <Cells>
        <DataArray type="Int64" Name="connectivity" format="ascii" RangeMin="0" RangeMax="7">
          0 1 2 3 4 5
          6 7
        </DataArray>
        <DataArray type="Int64" Name="offsets" format="ascii" RangeMin="1" RangeMax="8">
          1 2 3 4 5 6
          7 8
        </DataArray>
        <DataArray type="UInt8" Name="types" format="ascii" RangeMin="1" RangeMax="1">
          1 1 1 1 1 1
          1 1
        </DataArray>
      </Cells>
    </Piece>
  </UnstructuredGrid>
</VTKFile>
