<?xml version="1.0"?>
<VTKFile type="UnstructuredGrid" version="0.1" byte_order="LittleEndian" compressor="vtkZLibDataCompressor">
  <UnstructuredGrid>
    <Piece NumberOfPoints="8" NumberOfCells="8">
      <PointData>
        <DataArray type="Float64" Name="Displacement" NumberOfComponents="3" format="ascii" RangeMin="0.19051360933" RangeMax="0.19051360933">
          0.091269412365 0.091269412365 -0.14012574379 -0.091269412365 0.091269412365 -0.14012574379
          0.091269412365 -0.091269412365 -0.14012574379 -0.091269412365 -0.091269412365 -0.14012574379
          0.091269412365 0.091269412365 0.14012574379 -0.091269412365 0.091269412365 0.14012574379
          0.091269412365 -0.091269412365 0.14012574379 -0.091269412365 -0.091269412365 0.14012574379
        </DataArray>
        <DataArray type="Float64" Name="Velocity" NumberOfComponents="3" format="ascii" RangeMin="10.670594897" RangeMax="10.670594897">
          -4.374900453 -4.374900453 -8.69379592 4.374900453 -4.374900453 -8.69379592
          -4.374900453 4.374900453 -8.69379592 4.374900453 4.374900453 -8.69379592
          -4.374900453 -4.374900453 8.69379592 4.374900453 -4.374900453 8.69379592
          -4.374900453 4.374900453 8.69379592 4.374900453 4.374900453 8.69379592
        </DataArray>
        <DataArray type="Float64" Name="Force Density" NumberOfComponents="3" format="ascii" RangeMin="1916.4642271" RangeMax="1916.4642271">
          -786.68426612 -786.68426612 -1560.477768 786.68426612 -786.68426612 -1560.477768
          -786.68426612 786.68426612 -1560.477768 786.68426612 786.68426612 -1560.477768
          -786.68426612 -786.68426612 1560.477768 786.68426612 -786.68426612 1560.477768
          -786.68426612 786.68426612 1560.477768 786.68426612 786.68426612 1560.477768
        </DataArray>
        <DataArray type="Int32" Name="Id" format="ascii" RangeMin="0" RangeMax="7">
          0 1 2 3 4 5
          6 7
        </DataArray>
        <DataArray type="Int32" Name="Proc_Num" format="ascii" RangeMin="0" RangeMax="0">
          0 0 0 0 0 0
          0 0
        </DataArray>
        <DataArray type="Float64" Name="Dilatation" format="ascii" RangeMin="-0.0040780142709" RangeMax="-0.0040780142709">
          -0.0040780142709 -0.0040780142709 -0.0040780142709 -0.0040780142709 -0.0040780142709 -0.0040780142709
          -0.0040780142709 -0.0040780142709
        </DataArray>
        <DataArray type="Float64" Name="Lambda" format="ascii" RangeMin="0.0011838161143" RangeMax="0.0011838161143">
          0.0011838161143 0.0011838161143 0.0011838161143 0.0011838161143 0.0011838161143 0.0011838161143
          0.0011838161143 0.0011838161143
        </DataArray>
      </PointData>
      <CellData>
      </CellData>
      <Points>
        <DataArray type="Float64" Name="Points" NumberOfComponents="3" format="ascii" RangeMin="0.43301270189" RangeMax="1.2990381057">
          0.25 0.25 0.25 0.75 0.25 0.25
          0.25 0.75 0.25 0.75 0.75 0.25
          0.25 0.25 0.75 0.75 0.25 0.75
          0.25 0.75 0.75 0.75 0.75 0.75
        </DataArray>
      </Points>
      <Cells>
        <DataArray type="Int64" Name="connectivity" format="ascii" RangeMin="0" RangeMax="7">
          0 1 2 3 4 5
          6 7
        </DataArray>
        <DataArray type="Int64" Name="offsets" format="ascii" RangeMin="1" RangeMax="8">
          1 2 3 4 5 6
          7 8
        </DataArray>
        <DataArray type="UInt8" Name="types" format="ascii" RangeMin="1" RangeMax="1">
          1 1 1 1 1 1
          1 1
        </DataArray>
      </Cells>
    </Piece>
  </UnstructuredGrid>
</VTKFile>
