<?xml version="1.0"?>
<VTKFile type="UnstructuredGrid" version="0.1" byte_order="LittleEndian" compressor="vtkZLibDataCompressor">
  <UnstructuredGrid>
    <Piece NumberOfPoints="8" NumberOfCells="8">
      <PointData>
        <DataArray type="Float64" Name="Displacement" NumberOfComponents="3" format="ascii" RangeMin="0.19077088521" RangeMax="0.19077088521">
          0.090763157041 0.090763157041 -0.14112983133 -0.090763157041 0.090763157041 -0.14112983133
          0.090763157041 -0.090763157041 -0.14112983133 -0.090763157041 -0.090763157041 -0.14112983133
          0.090763157041 0.090763157041 0.14112983133 -0.090763157041 0.090763157041 0.14112983133
          0.090763157041 -0.090763157041 0.14112983133 -0.090763157041 -0.090763157041 0.14112983133
        </DataArray>
        <DataArray type="Float64" Name="Velocity" NumberOfComponents="3" format="ascii" RangeMin="8.9706088543" RangeMax="8.9706088543">
          -3.6915882886 -3.6915882886 -7.2949417429 3.6915882886 -3.6915882886 -7.2949417429
          -3.6915882886 3.6915882886 -7.2949417429 3.6915882886 3.6915882886 -7.2949417429
          -3.6915882886 -3.6915882886 7.2949417429 3.6915882886 -3.6915882886 7.2949417429
          -3.6915882886 3.6915882886 7.2949417429 3.6915882886 3.6915882886 7.2949417429
        </DataArray>
        <DataArray type="Float64" Name="Force Density" NumberOfComponents="3" format="ascii" RangeMin="1996.5617681" RangeMax="1996.5617681">
          818.66520894 818.66520894 1626.6018091 -818.66520894 818.66520894 1626.6018091
          818.66520894 -818.66520894 1626.6018091 -818.66520894 -818.66520894 1626.6018091
          818.66520894 818.66520894 -1626.6018091 -818.66520894 818.66520894 -1626.6018091
          818.66520894 -818.66520894 -1626.6018091 -818.66520894 -818.66520894 -1626.6018091
        </DataArray>
        <DataArray type="Int32" Name="Id" format="ascii" RangeMin="0" RangeMax="7">
          0 1 2 3 4 5
          6 7
        </DataArray>
        <DataArray type="Int32" Name="Proc_Num" format="ascii" RangeMin="0" RangeMax="0">
          0 0 0 0 0 0
          0 0
        </DataArray>
        <DataArray type="Float64" Name="Dilatation" format="ascii" RangeMin="0.0042472409982" RangeMax="0.0042472409982">
          0.0042472409982 0.0042472409982 0.0042472409982 0.0042472409982 0.0042472409982 0.0042472409982
          0.0042472409982 0.0042472409982
        </DataArray>
        <DataArray type="Float64" Name="Lambda" format="ascii" RangeMin="0.0011837208556" RangeMax="0.0011837208556">
          0.0011837208556 0.0011837208556 0.0011837208556 0.0011837208556 0.0011837208556 0.0011837208556
          0.0011837208556 0.0011837208556
        </DataArray>
      </PointData>
      <CellData>
      </CellData>
      <Points>
        <DataArray type="Float64" Name="Points" NumberOfComponents="3" format="ascii" RangeMin="0.43301270189" RangeMax="1.2990381057">
          0.25 0.25 0.25 0.75 0.25 0.25
          0.25 0.75 0.25 0.75 0.75 0.25
          0.25 0.25 0.75 0.75 0.25 0.75
          0.25 0.75 0.75 0.75 0.75 0.75
        </DataArray>
      </Points>
      <Cells>
        <DataArray type="Int64" Name="connectivity" format="ascii" RangeMin="0" RangeMax="7">
          0 1 2 3 4 5
          6 7
        </DataArray>
        <DataArray type="Int64" Name="offsets" format="ascii" RangeMin="1" RangeMax="8">
          1 2 3 4 5 6
          7 8
        </DataArray>
        <DataArray type="UInt8" Name="types" format="ascii" RangeMin="1" RangeMax="1">
          1 1 1 1 1 1
          1 1
        </DataArray>
      </Cells>
    </Piece>
  </UnstructuredGrid>
</VTKFile>
