<?xml version="1.0"?>
<VTKFile type="UnstructuredGrid" version="0.1" byte_order="LittleEndian" compressor="vtkZLibDataCompressor">
  <UnstructuredGrid>
    <Piece NumberOfPoints="8" NumberOfCells="8">
      <PointData>
        <DataArray type="Float64" Name="Displacement" NumberOfComponents="3" format="ascii" RangeMin="0.18969217552" RangeMax="0.18969217552">
          0.090592081868 0.090592081868 -0.13989021002 -0.090592081868 0.090592081868 -0.13989021002
          0.090592081868 -0.090592081868 -0.13989021002 -0.090592081868 -0.090592081868 -0.13989021002
          0.090592081868 0.090592081868 0.13989021002 -0.090592081868 0.090592081868 0.13989021002
          0.090592081868 -0.090592081868 0.13989021002 -0.090592081868 -0.090592081868 0.13989021002
        </DataArray>
        <DataArray type="Float64" Name="Velocity" NumberOfComponents="3" format="ascii" RangeMin="94.180788176" RangeMax="94.180788176">
          -42.680069425 -42.680069425 -72.296917009 42.680069425 -42.680069425 -72.296917009
          -42.680069425 42.680069425 -72.296917009 42.680069425 42.680069425 -72.296917009
          -42.680069425 -42.680069425 72.296917009 42.680069425 -42.680069425 72.296917009
          -42.680069425 42.680069425 72.296917009 42.680069425 42.680069425 72.296917009
        </DataArray>
        <DataArray type="Float64" Name="Force Density" NumberOfComponents="3" format="ascii" RangeMin="471.0237652" RangeMax="471.0237652">
          -306.30034992 -306.30034992 -184.9961585 306.30034992 -306.30034992 -184.9961585
          -306.30034992 306.30034992 -184.9961585 306.30034992 306.30034992 -184.9961585
          -306.30034992 -306.30034992 184.9961585 306.30034992 -306.30034992 184.9961585
          -306.30034992 306.30034992 184.9961585 306.30034992 306.30034992 184.9961585
        </DataArray>
        <DataArray type="Int32" Name="Id" format="ascii" RangeMin="0" RangeMax="7">
          0 1 2 3 4 5
          6 7
        </DataArray>
        <DataArray type="Int32" Name="Proc_Num" format="ascii" RangeMin="0" RangeMax="0">
          0 0 0 0 0 0
          0 0
        </DataArray>
        <DataArray type="Float64" Name="Dilatation" format="ascii" RangeMin="-0.001021990225" RangeMax="-0.001021990225">
          -0.001021990225 -0.001021990225 -0.001021990225 -0.001021990225 -0.001021990225 -0.001021990225
          -0.001021990225 -0.001021990225
        </DataArray>
        <DataArray type="Float64" Name="Lambda" format="ascii" RangeMin="0.00093268410273" RangeMax="0.00093268410273">
          0.00093268410273 0.00093268410273 0.00093268410273 0.00093268410273 0.00093268410273 0.00093268410273
          0.00093268410273 0.00093268410273
        </DataArray>
      </PointData>
      <CellData>
      </CellData>
      <Points>
        <DataArray type="Float64" Name="Points" NumberOfComponents="3" format="ascii" RangeMin="0.43301270189" RangeMax="1.2990381057">
          0.25 0.25 0.25 0.75 0.25 0.25
          0.25 0.75 0.25 0.75 0.75 0.25
          0.25 0.25 0.75 0.75 0.25 0.75
          0.25 0.75 0.75 0.75 0.75 0.75
        </DataArray>
      </Points>
      <Cells>
        <DataArray type="Int64" Name="connectivity" format="ascii" RangeMin="0" RangeMax="7">
          0 1 2 3 4 5
          6 7
        </DataArray>
        <DataArray type="Int64" Name="offsets" format="ascii" RangeMin="1" RangeMax="8">
          1 2 3 4 5 6
          7 8
        </DataArray>
        <DataArray type="UInt8" Name="types" format="ascii" RangeMin="1" RangeMax="1">
          1 1 1 1 1 1
          1 1
        </DataArray>
      </Cells>
    </Piece>
  </UnstructuredGrid>
</VTKFile>
