<?xml version="1.0"?>
<VTKFile type="UnstructuredGrid" version="0.1" byte_order="LittleEndian" compressor="vtkZLibDataCompressor">
  <UnstructuredGrid>
    <Piece NumberOfPoints="8" NumberOfCells="8">
      <PointData>
        <DataArray type="Float64" Name="Displacement" NumberOfComponents="3" format="ascii" RangeMin="0.1904746907" RangeMax="0.1904746907">
          0.091311573348 0.091311573348 -0.14001785938 -0.091311573348 0.091311573348 -0.14001785938
          0.091311573348 -0.091311573348 -0.14001785938 -0.091311573348 -0.091311573348 -0.14001785938
          0.091311573348 0.091311573348 0.14001785938 -0.091311573348 0.091311573348 0.14001785938
          0.091311573348 -0.091311573348 0.14001785938 -0.091311573348 -0.091311573348 0.14001785938
        </DataArray>
        <DataArray type="Float64" Name="Velocity" NumberOfComponents="3" format="ascii" RangeMin="17.657248612" RangeMax="17.657248612">
          7.8229739635 7.8229739635 13.761561877 -7.8229739635 7.8229739635 13.761561877
          7.8229739635 -7.8229739635 13.761561877 -7.8229739635 -7.8229739635 13.761561877
          7.8229739635 7.8229739635 -13.761561877 -7.8229739635 7.8229739635 -13.761561877
          7.8229739635 -7.8229739635 -13.761561877 -7.8229739635 -7.8229739635 -13.761561877
        </DataArray>
        <DataArray type="Float64" Name="Force Density" NumberOfComponents="3" format="ascii" RangeMin="2296.4868138" RangeMax="2296.4868138">
          -950.32716884 -950.32716884 -1862.1515057 950.32716884 -950.32716884 -1862.1515057
          -950.32716884 950.32716884 -1862.1515057 950.32716884 950.32716884 -1862.1515057
          -950.32716884 -950.32716884 1862.1515057 950.32716884 -950.32716884 1862.1515057
          -950.32716884 950.32716884 1862.1515057 950.32716884 950.32716884 1862.1515057
        </DataArray>
        <DataArray type="Int32" Name="Id" format="ascii" RangeMin="0" RangeMax="7">
          0 1 2 3 4 5
          6 7
        </DataArray>
        <DataArray type="Int32" Name="Proc_Num" format="ascii" RangeMin="0" RangeMax="0">
          0 0 0 0 0 0
          0 0
        </DataArray>
        <DataArray type="Float64" Name="Dilatation" format="ascii" RangeMin="-0.0048955965817" RangeMax="-0.0048955965817">
          -0.0048955965817 -0.0048955965817 -0.0048955965817 -0.0048955965817 -0.0048955965817 -0.0048955965817
          -0.0048955965817 -0.0048955965817
        </DataArray>
        <DataArray type="Float64" Name="Lambda" format="ascii" RangeMin="0.0011722699377" RangeMax="0.0011722699377">
          0.0011722699377 0.0011722699377 0.0011722699377 0.0011722699377 0.0011722699377 0.0011722699377
          0.0011722699377 0.0011722699377
        </DataArray>
      </PointData>
      <CellData>
      </CellData>
      <Points>
        <DataArray type="Float64" Name="Points" NumberOfComponents="3" format="ascii" RangeMin="0.43301270189" RangeMax="1.2990381057">
          0.25 0.25 0.25 0.75 0.25 0.25
          0.25 0.75 0.25 0.75 0.75 0.25
          0.25 0.25 0.75 0.75 0.25 0.75
          0.25 0.75 0.75 0.75 0.75 0.75
        </DataArray>
      </Points>
      <Cells>
        <DataArray type="Int64" Name="connectivity" format="ascii" RangeMin="0" RangeMax="7">
          0 1 2 3 4 5
          6 7
        </DataArray>
        <DataArray type="Int64" Name="offsets" format="ascii" RangeMin="1" RangeMax="8">
          1 2 3 4 5 6
          7 8
        </DataArray>
        <DataArray type="UInt8" Name="types" format="ascii" RangeMin="1" RangeMax="1">
          1 1 1 1 1 1
          1 1
        </DataArray>
      </Cells>
    </Piece>
  </UnstructuredGrid>
</VTKFile>
