<?xml version="1.0"?>
<VTKFile type="UnstructuredGrid" version="0.1" byte_order="LittleEndian" compressor="vtkZLibDataCompressor">
  <UnstructuredGrid>
    <Piece NumberOfPoints="8" NumberOfCells="8">
      <PointData>
        <DataArray type="Float64" Name="Displacement" NumberOfComponents="3" format="ascii" RangeMin="0.19010973608" RangeMax="0.19010973608">
          0.089560314322 0.089560314322 -0.14177310024 -0.089560314322 0.089560314322 -0.14177310024
          0.089560314322 -0.089560314322 -0.14177310024 -0.089560314322 -0.089560314322 -0.14177310024
          0.089560314322 0.089560314322 0.14177310024 -0.089560314322 0.089560314322 0.14177310024
          0.089560314322 -0.089560314322 0.14177310024 -0.089560314322 -0.089560314322 0.14177310024
        </DataArray>
        <DataArray type="Float64" Name="Velocity" NumberOfComponents="3" format="ascii" RangeMin="50.741522625" RangeMax="50.741522625">
          -23.749502195 -23.749502195 -38.034516025 23.749502195 -23.749502195 -38.034516025
          -23.749502195 23.749502195 -38.034516025 23.749502195 23.749502195 -38.034516025
          -23.749502195 -23.749502195 38.034516025 23.749502195 -23.749502195 38.034516025
          -23.749502195 23.749502195 38.034516025 23.749502195 23.749502195 38.034516025
        </DataArray>
        <DataArray type="Float64" Name="Force Density" NumberOfComponents="3" format="ascii" RangeMin="6971.5041264" RangeMax="6971.5041264">
          3127.1043527 3127.1043527 5389.2769942 -3127.1043527 3127.1043527 5389.2769942
          3127.1043527 -3127.1043527 5389.2769942 -3127.1043527 -3127.1043527 5389.2769942
          3127.1043527 3127.1043527 -5389.2769942 -3127.1043527 3127.1043527 -5389.2769942
          3127.1043527 -3127.1043527 -5389.2769942 -3127.1043527 -3127.1043527 -5389.2769942
        </DataArray>
        <DataArray type="Int32" Name="Id" format="ascii" RangeMin="0" RangeMax="7">
          0 1 2 3 4 5
          6 7
        </DataArray>
        <DataArray type="Int32" Name="Proc_Num" format="ascii" RangeMin="0" RangeMax="0">
          0 0 0 0 0 0
          0 0
        </DataArray>
        <DataArray type="Float64" Name="Dilatation" format="ascii" RangeMin="0.015110634059" RangeMax="0.015110634059">
          0.015110634059 0.015110634059 0.015110634059 0.015110634059 0.015110634059 0.015110634059
          0.015110634059 0.015110634059
        </DataArray>
        <DataArray type="Float64" Name="Lambda" format="ascii" RangeMin="0.00095100628792" RangeMax="0.00095100628792">
          0.00095100628792 0.00095100628792 0.00095100628792 0.00095100628792 0.00095100628792 0.00095100628792
          0.00095100628792 0.00095100628792
        </DataArray>
      </PointData>
      <CellData>
      </CellData>
      <Points>
        <DataArray type="Float64" Name="Points" NumberOfComponents="3" format="ascii" RangeMin="0.43301270189" RangeMax="1.2990381057">
          0.25 0.25 0.25 0.75 0.25 0.25
          0.25 0.75 0.25 0.75 0.75 0.25
          0.25 0.25 0.75 0.75 0.25 0.75
          0.25 0.75 0.75 0.75 0.75 0.75
        </DataArray>
      </Points>
      <Cells>
        <DataArray type="Int64" Name="connectivity" format="ascii" RangeMin="0" RangeMax="7">
          0 1 2 3 4 5
          6 7
        </DataArray>
        <DataArray type="Int64" Name="offsets" format="ascii" RangeMin="1" RangeMax="8">
          1 2 3 4 5 6
          7 8
        </DataArray>
        <DataArray type="UInt8" Name="types" format="ascii" RangeMin="1" RangeMax="1">
          1 1 1 1 1 1
          1 1
        </DataArray>
      </Cells>
    </Piece>
  </UnstructuredGrid>
</VTKFile>
