<?xml version="1.0"?>
<!--
Peridigm Version XXX: Wed May 12 14:58:44 2010
-->
<VTKFile type="UnstructuredGrid" version="0.1" byte_order="LittleEndian">
  <UnstructuredGrid>
    <Piece NumberOfPoints="4" NumberOfCells="4">
      <Points>
        <DataArray type="Float64" Name="Points" NumberOfComponents="3" format="ascii">
         5.250000000000000e-01 4.900514700790598e-01 5.000000000000000e-01
         1.575000000000000e+00 4.900506577519153e-01 5.000000000000000e-01
         5.250000000000000e-01 1.509948529920944e+00 5.000000000000000e-01
         1.575000000000000e+00 1.509949342248085e+00 5.000000000000000e-01
        </DataArray>
      </Points>
      <Cells>
        <DataArray type="Int64" Name="connectivity" format="ascii" >
         0 1 2 3
        </DataArray>
        <DataArray type="Int64" Name="offsets" format="ascii" >
         1 2 3 4
        </DataArray>
        <DataArray type="UInt8" Name="types" format="ascii" >
         1 1 1 1
        </DataArray>
      </Cells>
      <CellData>
      </CellData>
      <PointData>
        <DataArray type="Float64" Name="X_Position" format="ascii" >
         5.250000000000000e-01 1.575000000000000e+00 5.250000000000000e-01 1.575000000000000e+00
        </DataArray>
        <DataArray type="Float64" Name="Y_Position" format="ascii" >
         4.900514700790598e-01 4.900506577519153e-01 1.509948529920944e+00 1.509949342248085e+00
        </DataArray>
        <DataArray type="Float64" Name="Z_Position" format="ascii" >
         5.000000000000000e-01 5.000000000000000e-01 5.000000000000000e-01 5.000000000000000e-01
        </DataArray>
        <DataArray type="Float64" Name="X_Velocity" format="ascii" >
         0.000000000000000e+00 0.000000000000000e+00 0.000000000000000e+00 0.000000000000000e+00
        </DataArray>
        <DataArray type="Float64" Name="Y_Velocity" format="ascii" >
         -2.472177297523177e+01 -2.472379158173567e+01 2.472177297523177e+01 2.472379158173567e+01
        </DataArray>
        <DataArray type="Float64" Name="Z_Velocity" format="ascii" >
         0.000000000000000e+00 0.000000000000000e+00 0.000000000000000e+00 0.000000000000000e+00
        </DataArray>
        <DataArray type="Int64" Name="ID" format="ascii" >
         0 1 2 3
        </DataArray>
        <DataArray type="Int64" Name="Proc_Num" format="ascii" >
         0 0 0 0
        </DataArray>
        <DataArray type="Float64" Name="Damage" format="ascii" >
         0.000000000000000e+00 0.000000000000000e+00 0.000000000000000e+00 0.000000000000000e+00
        </DataArray>
        <DataArray type="Float64" Name="Dilatation" format="ascii" >
         5.969117952565118e-02 5.969605348850848e-02 5.969117952565118e-02 5.969605348850848e-02
        </DataArray>
        <DataArray type="Float64" Name="Weighted_Volume" format="ascii" >
         1.050000000000000e+00 1.050000000000000e+00 1.050000000000000e+00 1.050000000000000e+00
        </DataArray>
      </PointData>
    </Piece>
  </UnstructuredGrid>
</VTKFile>
