<?xml version="1.0"?>
<!--
Peridigm Version XXX: Wed May 12 14:58:44 2010
-->
<VTKFile type="UnstructuredGrid" version="0.1" byte_order="LittleEndian">
  <UnstructuredGrid>
    <Piece NumberOfPoints="4" NumberOfCells="4">
      <Points>
        <DataArray type="Float64" Name="Points" NumberOfComponents="3" format="ascii">
         5.250000000000000e-01 4.975750304990588e-01 5.000000000000000e-01
         1.575000000000000e+00 4.975748324930655e-01 5.000000000000000e-01
         5.250000000000000e-01 1.502424969500942e+00 5.000000000000000e-01
         1.575000000000000e+00 1.502425167506935e+00 5.000000000000000e-01
        </DataArray>
      </Points>
      <Cells>
        <DataArray type="Int64" Name="connectivity" format="ascii" >
         0 1 2 3
        </DataArray>
        <DataArray type="Int64" Name="offsets" format="ascii" >
         1 2 3 4
        </DataArray>
        <DataArray type="UInt8" Name="types" format="ascii" >
         1 1 1 1
        </DataArray>
      </Cells>
      <CellData>
      </CellData>
      <PointData>
        <DataArray type="Float64" Name="X_Position" format="ascii" >
         5.250000000000000e-01 1.575000000000000e+00 5.250000000000000e-01 1.575000000000000e+00
        </DataArray>
        <DataArray type="Float64" Name="Y_Position" format="ascii" >
         4.975750304990588e-01 4.975748324930655e-01 1.502424969500942e+00 1.502425167506935e+00
        </DataArray>
        <DataArray type="Float64" Name="Z_Position" format="ascii" >
         5.000000000000000e-01 5.000000000000000e-01 5.000000000000000e-01 5.000000000000000e-01
        </DataArray>
        <DataArray type="Float64" Name="X_Velocity" format="ascii" >
         0.000000000000000e+00 0.000000000000000e+00 0.000000000000000e+00 0.000000000000000e+00
        </DataArray>
        <DataArray type="Float64" Name="Y_Velocity" format="ascii" >
         -2.376274974106014e+02 -2.376469004046067e+02 2.376274974106014e+02 2.376469004046067e+02
        </DataArray>
        <DataArray type="Float64" Name="Z_Velocity" format="ascii" >
         0.000000000000000e+00 0.000000000000000e+00 0.000000000000000e+00 0.000000000000000e+00
        </DataArray>
        <DataArray type="Int64" Name="ID" format="ascii" >
         0 1 2 3
        </DataArray>
        <DataArray type="Int64" Name="Proc_Num" format="ascii" >
         0 0 0 0
        </DataArray>
        <DataArray type="Float64" Name="Damage" format="ascii" >
         0.000000000000000e+00 0.000000000000000e+00 0.000000000000000e+00 0.000000000000000e+00
        </DataArray>
        <DataArray type="Float64" Name="Dilatation" format="ascii" >
         1.454981700565039e-02 1.455100504160733e-02 1.454981700565039e-02 1.455100504160733e-02
        </DataArray>
        <DataArray type="Float64" Name="Weighted_Volume" format="ascii" >
         1.050000000000000e+00 1.050000000000000e+00 1.050000000000000e+00 1.050000000000000e+00
        </DataArray>
      </PointData>
    </Piece>
  </UnstructuredGrid>
</VTKFile>
