<?xml version="1.0"?>
<VTKFile type="UnstructuredGrid" version="0.1" byte_order="LittleEndian" compressor="vtkZLibDataCompressor">
  <UnstructuredGrid>
    <Piece NumberOfPoints="525" NumberOfCells="525">
      <PointData>
        <DataArray type="Float64" Name="Damage" format="ascii" RangeMin="0" RangeMax="0">
          0 0 0 0 0 0
          0 0 0 0 0 0
          0 0 0 0 0 0
          0 0 0 0 0 0
          0 0 0 0 0 0
          0 0 0 0 0 0
          0 0 0 0 0 0
          0 0 0 0 0 0
          0 0 0 0 0 0
          0 0 0 0 0 0
          0 0 0 0 0 0
          0 0 0 0 0 0
          0 0 0 0 0 0
          0 0 0 0 0 0
          0 0 0 0 0 0
          0 0 0 0 0 0
          0 0 0 0 0 0
          0 0 0 0 0 0
          0 0 0 0 0 0
          0 0 0 0 0 0
          0 0 0 0 0 0
          0 0 0 0 0 0
          0 0 0 0 0 0
          0 0 0 0 0 0
          0 0 0 0 0 0
          0 0 0 0 0 0
          0 0 0 0 0 0
          0 0 0 0 0 0
          0 0 0 0 0 0
          0 0 0 0 0 0
          0 0 0 0 0 0
          0 0 0 0 0 0
          0 0 0 0 0 0
          0 0 0 0 0 0
          0 0 0 0 0 0
          0 0 0 0 0 0
          0 0 0 0 0 0
          0 0 0 0 0 0
          0 0 0 0 0 0
          0 0 0 0 0 0
          0 0 0 0 0 0
          0 0 0 0 0 0
          0 0 0 0 0 0
          0 0 0 0 0 0
          0 0 0 0 0 0
          0 0 0 0 0 0
          0 0 0 0 0 0
          0 0 0 0 0 0
          0 0 0 0 0 0
          0 0 0 0 0 0
          0 0 0 0 0 0
          0 0 0 0 0 0
          0 0 0 0 0 0
          0 0 0 0 0 0
          0 0 0 0 0 0
          0 0 0 0 0 0
          0 0 0 0 0 0
          0 0 0 0 0 0
          0 0 0 0 0 0
          0 0 0 0 0 0
          0 0 0 0 0 0
          0 0 0 0 0 0
          0 0 0 0 0 0
          0 0 0 0 0 0
          0 0 0 0 0 0
          0 0 0 0 0 0
          0 0 0 0 0 0
          0 0 0 0 0 0
          0 0 0 0 0 0
          0 0 0 0 0 0
          0 0 0 0 0 0
          0 0 0 0 0 0
          0 0 0 0 0 0
          0 0 0 0 0 0
          0 0 0 0 0 0
          0 0 0 0 0 0
          0 0 0 0 0 0
          0 0 0 0 0 0
          0 0 0 0 0 0
          0 0 0 0 0 0
          0 0 0 0 0 0
          0 0 0 0 0 0
          0 0 0 0 0 0
          0 0 0 0 0 0
          0 0 0 0 0 0
          0 0 0 0 0 0
          0 0 0 0 0 0
          0 0 0
        </DataArray>
        <DataArray type="Float64" Name="Dilatation" format="ascii" RangeMin="-0.011108390733" RangeMax="0.0032851562607">
          -0.00045208574022 -0.0010993977707 -0.0037605818806 -0.0010993977707 -0.00045208574022 -0.0010993977707
          -0.00048291196821 -0.00029178406311 -0.00048291196821 -0.0010993977707 -0.0037605818806 -0.00029178406311
          -0.0013487404986 -0.00029178406311 -0.0037605818806 -0.0010993977707 -0.00048291196821 -0.00029178406311
          -0.00048291196821 -0.0010993977707 -0.00045208574022 -0.0010993977707 -0.0037605818806 -0.0010993977707
          -0.00045208574022 -0.0058275742404 -0.002637503678 -0.0042867639468 -0.002637503678 -0.0058275742404
          -0.002637503678 0.0016922259872 -0.00038523234607 0.0016922259872 -0.002637503678 -0.0042867639468
          -0.00038523234607 -0.0023181699835 -0.00038523234607 -0.0042867639468 -0.002637503678 0.0016922259872
          -0.00038523234607 0.0016922259872 -0.002637503678 -0.0058275742404 -0.002637503678 -0.0042867639468
          -0.002637503678 -0.0058275742404 -0.0078588555966 -0.0036995785008 -0.0038658488073 -0.0036995785008
          -0.0078588555966 -0.0036995785008 0.0021705826809 -0.00049807396078 0.0021705826809 -0.0036995785008
          -0.0038658488073 -0.00049807396078 -0.0023538095765 -0.00049807396078 -0.0038658488073 -0.0036995785008
          0.0021705826809 -0.00049807396078 0.0021705826809 -0.0036995785008 -0.0078588555966 -0.0036995785008
          -0.0038658488073 -0.0036995785008 -0.0078588555966 -0.0045631294697 -0.0038655841729 -0.0027339528946
          -0.0038655841729 -0.0045631294697 -0.0038655841729 -0.00059240232972 -0.0018840672135 -0.00059240232972
          -0.0038655841729 -0.0027339528946 -0.0018840672135 -0.0022149918372 -0.0018840672135 -0.0027339528946
          -0.0038655841729 -0.00059240232972 -0.0018840672135 -0.00059240232972 -0.0038655841729 -0.0045631294697
          -0.0038655841729 -0.0027339528946 -0.0038655841729 -0.0045631294697 0.002258769878 -0.0010681761925
          6.9296078856e-05 -0.0010681761925 0.002258769878 -0.0010681761925 -0.0019833926 -0.0018416955818
          -0.0019833926 -0.0010681761925 6.9296078855e-05 -0.0018416955818 -0.00093744030798 -0.0018416955818
          6.9296078856e-05 -0.0010681761925 -0.0019833926 -0.0018416955818 -0.0019833926 -0.0010681761925
          0.002258769878 -0.0010681761925 6.9296078855e-05 -0.0010681761925 0.002258769878 0.0031748955812
          -0.0012986149285 -2.5746559268e-05 -0.0012986149285 0.0031748955812 -0.0012986149285 -0.0043905266108
          -0.0027653257634 -0.0043905266108 -0.0012986149285 -2.5746559268e-05 -0.0027653257634 -0.00093864738973
          -0.0027653257634 -2.5746559268e-05 -0.0012986149285 -0.0043905266108 -0.0027653257634 -0.0043905266108
          -0.0012986149285 0.0031748955812 -0.0012986149285 -2.5746559268e-05 -0.0012986149285 0.0031748955812
          0.0032851562607 -0.00092432595001 -0.00075155365338 -0.00092432595001 0.0032851562607 -0.00092432595001
          -0.0041613441644 -0.002408019311 -0.0041613441644 -0.00092432595001 -0.00075155365338 -0.002408019311
          -0.00086832338571 -0.002408019311 -0.00075155365338 -0.00092432595001 -0.0041613441644 -0.002408019311
          -0.0041613441644 -0.00092432595001 0.0032851562607 -0.00092432595001 -0.00075155365338 -0.00092432595001
          0.0032851562607 -0.00092815798324 -0.0025402395132 -0.0025402417985 -0.0025402395132 -0.00092815798324
          -0.0025402395132 -0.0039317361784 -0.0023825270498 -0.0039317361784 -0.0025402395132 -0.0025402417985
          -0.0023825270498 -0.0014043088595 -0.0023825270498 -0.0025402417985 -0.0025402395132 -0.0039317361784
          -0.0023825270498 -0.0039317361784 -0.0025402395132 -0.00092815798324 -0.0025402395132 -0.0025402417985
          -0.0025402395132 -0.00092815798324 -0.0035153064523 -0.0030095112718 -0.0032954907504 -0.0030095112718
          -0.0035153064523 -0.0030095112718 -0.0025415331923 -0.0019287045388 -0.0025415331923 -0.0030095112718
          -0.0032954907504 -0.0019287045388 -0.0016808024314 -0.0019287045388 -0.0032954907504 -0.0030095112718
          -0.0025415331923 -0.0019287045388 -0.0025415331923 -0.0030095112718 -0.0035153064523 -0.0030095112718
          -0.0032954907504 -0.0030095112718 -0.0035153064523 -0.0063234683271 -0.0046407057176 -0.0043872033126
          -0.0046407057176 -0.0063234683271 -0.0046407057176 -0.0034003012839 -0.002875054109 -0.0034003012839
          -0.0046407057176 -0.0043872033126 -0.002875054109 -0.0025672083924 -0.002875054109 -0.0043872033126
          -0.0046407057176 -0.0034003012839 -0.002875054109 -0.0034003012839 -0.0046407057176 -0.0063234683271
          -0.0046407057176 -0.0043872033126 -0.0046407057176 -0.0063234683271 -0.0066309535317 -0.0057923917557
          -0.0049952015613 -0.0057923917557 -0.0066309535317 -0.0057923917557 -0.0053857128042 -0.0044982183966
          -0.0053857128042 -0.0057923917557 -0.0049952015613 -0.0044982183966 -0.0035283497696 -0.0044982183966
          -0.0049952015613 -0.0057923917557 -0.0053857128042 -0.0044982183966 -0.0053857128042 -0.0057923917557
          -0.0066309535317 -0.0057923917557 -0.0049952015613 -0.0057923917557 -0.0066309535317 -0.0048840095683
          -0.0055600972876 -0.0044607085187 -0.0055600972876 -0.0048840095683 -0.0055600972876 -0.0069242644135
          -0.0054825870691 -0.0069242644135 -0.0055600972876 -0.0044607085187 -0.0054825870691 -0.0036513825078
          -0.0054825870691 -0.0044607085187 -0.0055600972876 -0.0069242644135 -0.0054825870691 -0.0069242644135
          -0.0055600972876 -0.0048840095683 -0.0055600972876 -0.0044607085187 -0.0055600972876 -0.0048840095683
          -0.0038476633444 -0.0056996649972 -0.0045027198833 -0.0056996649972 -0.0038476633444 -0.0056996649972
          -0.0086933659019 -0.0067421515605 -0.0086933659019 -0.0056996649972 -0.0045027198833 -0.0067421515605
          -0.0042325667185 -0.0067421515605 -0.0045027198833 -0.0056996649972 -0.0086933659019 -0.0067421515605
          -0.0086933659019 -0.0056996649972 -0.0038476633444 -0.0056996649972 -0.0045027198833 -0.0056996649972
          -0.0038476633444 -0.0030791851157 -0.0053199788977 -0.0043064380794 -0.0053199788977 -0.0030791851157
          -0.0053199788977 -0.0092606020203 -0.0071873875344 -0.0092606020203 -0.0053199788977 -0.0043064380794
          -0.0071873875344 -0.0045082444122 -0.0071873875344 -0.0043064380794 -0.0053199788977 -0.0092606020203
          -0.0071873875344 -0.0092606020203 -0.0053199788977 -0.0030791851157 -0.0053199788977 -0.0043064380794
          -0.0053199788977 -0.0030791851157 -0.0029461751333 -0.0046853987339 -0.003861688106 -0.0046853987339
          -0.0029461751333 -0.0046853987339 -0.0083171792333 -0.0064179402734 -0.0083171792333 -0.0046853987339
          -0.003861688106 -0.0064179402734 -0.0039967546117 -0.0064179402734 -0.003861688106 -0.0046853987339
          -0.0083171792333 -0.0064179402734 -0.0083171792333 -0.0046853987339 -0.0029461751333 -0.0046853987339
          -0.003861688106 -0.0046853987339 -0.0029461751333 -0.0030415951695 -0.0041879245965 -0.0034500812911
          -0.0041879245965 -0.0030415951695 -0.0041879245965 -0.0069815688924 -0.0053353613348 -0.0069815688924
          -0.0041879245965 -0.0034500812911 -0.0053353613348 -0.0033451617462 -0.0053353613348 -0.0034500812911
          -0.0041879245965 -0.0069815688924 -0.0053353613348 -0.0069815688924 -0.0041879245965 -0.0030415951695
          -0.0041879245965 -0.0034500812911 -0.0041879245965 -0.0030415951695 -0.0030677683315 -0.0036890392745
          -0.0032288941626 -0.0036890392745 -0.0030677683315 -0.0036890392745 -0.0045065987802 -0.0033524388128
          -0.0045065987802 -0.0036890392745 -0.0032288941626 -0.0033524388128 -0.0019501303794 -0.0033524388128
          -0.0032288941626 -0.0036890392745 -0.0045065987802 -0.0033524388128 -0.0045065987802 -0.0036890392745
          -0.0030677683315 -0.0036890392745 -0.0032288941626 -0.0036890392745 -0.0030677683315 -0.004341217853
          -0.0046316567307 -0.0045573583968 -0.0046316567307 -0.004341217853 -0.0046316567307 -0.0050941962146
          -0.0050970281675 -0.0050941962146 -0.0046316567307 -0.0045573583968 -0.0050970281675 -0.0050928190375
          -0.0050970281675 -0.0045573583968 -0.0046316567307 -0.0050941962146 -0.0050970281675 -0.0050941962146
          -0.0046316567307 -0.004341217853 -0.0046316567307 -0.0045573583968 -0.0046316567307 -0.004341217853
          -0.0010056662714 -0.0018224016337 -0.0034310970827 -0.0018224016337 -0.0010056662714 -0.0018224016337
          -0.0018050673355 -0.0038776178746 -0.0018050673355 -0.0018224016337 -0.0034310970827 -0.0038776178746
          -0.011108390733 -0.0038776178746 -0.0034310970827 -0.0018224016337 -0.0018050673355 -0.0038776178746
          -0.0018050673355 -0.0018224016337 -0.0010056662714 -0.0018224016337 -0.0034310970827 -0.0018224016337
          -0.0010056662714 0.0024654794514 -0.00046807391302 -0.0031747260507 -0.00046807391301 0.0024654794514
          -0.00046807391301 -0.004556221676 -0.0040642739544 -0.004556221676 -0.00046807391301 -0.0031747260507
          -0.0040642739544 -0.004681009204 -0.0040642739544 -0.0031747260507 -0.00046807391302 -0.004556221676
          -0.0040642739544 -0.004556221676 -0.00046807391302 0.0024654794514 -0.00046807391302 -0.0031747260507
          -0.00046807391302 0.0024654794514 0.0026093590765 0.0003315214682 -0.00096752039107 0.0003315214682
          0.0026093590765 0.0003315214682 -0.0030735550595 -0.0010125424351 -0.0030735550595 0.0003315214682
          -0.00096752039107 -0.0010125424351 -0.00079001787265 -0.0010125424351 -0.00096752039107 0.0003315214682
          -0.0030735550595 -0.0010125424351 -0.0030735550595 0.0003315214682 0.0026093590765 0.0003315214682
          -0.00096752039107 0.0003315214682 0.0026093590765
        </DataArray>
        <DataArray type="Float64" Name="Displacement" NumberOfComponents="3" format="ascii" RangeMin="0.00014153628146" RangeMax="0.00040861421656">
          -0.00016302899406 2.8713835565e-06 -2.8713835565e-06 -0.00017377306438 6.1043200384e-06 2.9202682695e-06
          -0.00017901897265 1.3490296234e-05 8.3035800553e-20 -0.00017377306438 6.1043200384e-06 -2.9202682695e-06
          -0.00016302899406 2.8713835565e-06 2.8713835565e-06 -0.00017377306438 -2.9202682695e-06 -6.1043200384e-06
          -0.00018527871446 9.9627751427e-07 -9.9627751427e-07 -0.00018519903161 -3.6269892746e-06 -2.3099029001e-20
          -0.00018527871446 9.9627751427e-07 9.9627751427e-07 -0.00017377306438 -2.9202682695e-06 6.1043200384e-06
          -0.00017901897265 2.8454730807e-19 -1.3490296234e-05 -0.00018519903161 2.8164734895e-19 3.6269892746e-06
          -0.00018707125939 -2.2667021989e-19 3.2868242254e-19 -0.00018519903161 -2.8733419497e-19 -3.6269892746e-06
          -0.00017901897265 1.4631993162e-19 1.3490296234e-05 -0.00017377306438 2.9202682695e-06 -6.1043200384e-06
          -0.00018527871446 -9.9627751427e-07 -9.9627751427e-07 -0.00018519903161 3.6269892746e-06 5.8207345498e-20
          -0.00018527871446 -9.9627751427e-07 9.9627751427e-07 -0.00017377306438 2.9202682695e-06 6.1043200384e-06
          -0.00016302899406 -2.8713835565e-06 -2.8713835565e-06 -0.00017377306438 -6.1043200384e-06 2.9202682695e-06
          -0.00017901897265 -1.3490296234e-05 -2.4803469426e-19 -0.00017377306438 -6.1043200384e-06 -2.9202682695e-06
          -0.00016302899406 -2.8713835565e-06 2.8713835565e-06 -0.0001519715676 1.1260192714e-05 -1.1260192714e-05
          -0.00016003911399 8.7744464151e-06 4.3089377867e-07 -0.00015984226125 1.2744107487e-05 1.6439555821e-19
          -0.00016003911399 8.7744464151e-06 -4.3089377867e-07 -0.0001519715676 1.1260192714e-05 1.1260192714e-05
          -0.00016003911399 -4.3089377867e-07 -8.7744464151e-06 -0.00016781028671 -7.7043738709e-06 7.7043738709e-06
          -0.00016277089658 -8.5440228445e-06 -2.7605538855e-19 -0.00016781028671 -7.7043738709e-06 -7.7043738709e-06
          -0.00016003911399 -4.3089377867e-07 8.7744464151e-06 -0.00015984226125 3.0867892745e-19 -1.2744107487e-05
          -0.00016277089658 -2.2393637583e-20 8.5440228445e-06 -0.0001670602237 1.7215297517e-19 2.318803319e-19
          -0.00016277089658 1.2427223283e-19 -8.5440228445e-06 -0.00015984226125 -4.308638334e-20 1.2744107487e-05
          -0.00016003911399 4.3089377867e-07 -8.7744464151e-06 -0.00016781028671 7.7043738709e-06 7.7043738709e-06
          -0.00016277089658 8.5440228445e-06 -2.242967818e-19 -0.00016781028671 7.7043738709e-06 -7.7043738709e-06
          -0.00016003911399 4.3089377867e-07 8.7744464151e-06 -0.0001519715676 -1.1260192714e-05 -1.1260192714e-05
          -0.00016003911399 -8.7744464151e-06 4.3089377867e-07 -0.00015984226125 -1.2744107487e-05 -4.8397945644e-20
          -0.00016003911399 -8.7744464151e-06 -4.3089377867e-07 -0.0001519715676 -1.1260192714e-05 1.1260192714e-05
          -0.00016518845643 1.2328942218e-05 -1.2328942218e-05 -0.00017645710949 8.2484229173e-06 -3.7544028592e-06
          -0.00017246311781 8.8850678929e-06 1.4389552234e-19 -0.00017645710949 8.2484229173e-06 3.7544028592e-06
          -0.00016518845643 1.2328942218e-05 1.2328942218e-05 -0.00017645710949 3.7544028592e-06 -8.2484229173e-06
          -0.00017934941051 -9.8563654561e-06 9.8563654561e-06 -0.00017119015455 -7.4085963362e-06 1.8324399082e-19
          -0.00017934941051 -9.8563654561e-06 -9.8563654561e-06 -0.00017645710949 3.7544028592e-06 8.2484229173e-06
          -0.00017246311781 5.970333883e-19 -8.8850678929e-06 -0.00017119015455 -3.6813394856e-19 7.4085963362e-06
          -0.00016771703285 1.908141979e-19 1.8798094137e-19 -0.00017119015455 -1.2174149676e-19 -7.4085963362e-06
          -0.00017246311781 9.896643303e-20 8.8850678929e-06 -0.00017645710949 -3.7544028592e-06 -8.2484229173e-06
          -0.00017934941051 9.8563654561e-06 9.8563654561e-06 -0.00017119015455 7.4085963362e-06 8.917293739e-21
          -0.00017934941051 9.8563654561e-06 -9.8563654561e-06 -0.00017645710949 -3.7544028592e-06 8.2484229173e-06
          -0.00016518845643 -1.2328942218e-05 -1.2328942218e-05 -0.00017645710949 -8.2484229173e-06 -3.7544028592e-06
          -0.00017246311781 -8.8850678929e-06 -8.2256213371e-20 -0.00017645710949 -8.2484229173e-06 3.7544028592e-06
          -0.00016518845643 -1.2328942218e-05 1.2328942218e-05 -0.00017076347511 2.2192320201e-06 -2.2192320201e-06
          -0.00017891248512 1.0271539241e-06 -5.9584515914e-06 -0.00017569449915 9.5326564987e-07 -5.4664016184e-21
          -0.00017891248512 1.0271539241e-06 5.9584515914e-06 -0.00017076347511 2.2192320201e-06 2.2192320201e-06
          -0.00017891248512 5.9584515914e-06 -1.0271539241e-06 -0.00018205610056 -6.0671539182e-06 6.0671539182e-06
          -0.00017541130994 -3.0390280733e-06 -8.5504348287e-21 -0.00018205610056 -6.0671539182e-06 -6.0671539182e-06
          -0.00017891248512 5.9584515914e-06 1.0271539241e-06 -0.00017569449915 1.4874202111e-19 -9.5326564987e-07
          -0.00017541130994 2.2812793349e-19 3.0390280733e-06 -0.00016993242915 1.1555000117e-19 4.0380723221e-19
          -0.00017541130994 1.4064330826e-20 -3.0390280733e-06 -0.00017569449915 -3.3618980577e-20 9.5326564987e-07
          -0.00017891248512 -5.9584515914e-06 -1.0271539241e-06 -0.00018205610056 6.0671539182e-06 6.0671539182e-06
          -0.00017541130994 3.0390280733e-06 3.1523951036e-19 -0.00018205610056 6.0671539182e-06 -6.0671539182e-06
          -0.00017891248512 -5.9584515914e-06 1.0271539241e-06 -0.00017076347511 -2.2192320201e-06 -2.2192320201e-06
          -0.00017891248512 -1.0271539241e-06 -5.9584515914e-06 -0.00017569449915 -9.5326564987e-07 4.2444717481e-19
          -0.00017891248512 -1.0271539241e-06 5.9584515914e-06 -0.00017076347511 -2.2192320201e-06 2.2192320201e-06
          -0.00016572468713 -1.1630476622e-05 1.1630476622e-05 -0.00017534900152 -9.0351570312e-06 -3.3064672684e-06
          -0.00017628968729 -9.1359290539e-06 8.1229817561e-20 -0.00017534900152 -9.0351570312e-06 3.3064672684e-06
          -0.00016572468713 -1.1630476622e-05 -1.1630476622e-05 -0.00017534900152 3.3064672684e-06 9.0351570312e-06
          -0.00018409705614 -2.4034728325e-06 2.4034728325e-06 -0.00018188460033 -4.5687999455e-07 4.304172595e-20
          -0.00018409705614 -2.4034728325e-06 -2.4034728325e-06 -0.00017534900152 3.3064672684e-06 -9.0351570312e-06
          -0.00017628968729 -3.90263001e-19 9.1359290539e-06 -0.00018188460033 8.609462613e-20 4.5687999455e-07
          -0.0001771389504 -1.1818962201e-19 -9.6872190811e-20 -0.00018188460033 -2.5124113027e-19 -4.5687999455e-07
          -0.00017628968729 -2.608451896e-19 -9.1359290539e-06 -0.00017534900152 -3.3064672684e-06 9.0351570312e-06
          -0.00018409705614 2.4034728325e-06 2.4034728325e-06 -0.00018188460033 4.5687999455e-07 -3.2340762084e-19
          -0.00018409705614 2.4034728325e-06 -2.4034728325e-06 -0.00017534900152 -3.3064672684e-06 -9.0351570312e-06
          -0.00016572468713 1.1630476622e-05 1.1630476622e-05 -0.00017534900152 9.0351570312e-06 -3.3064672684e-06
          -0.00017628968729 9.1359290539e-06 1.050230848e-19 -0.00017534900152 9.0351570312e-06 3.3064672684e-06
          -0.00016572468713 1.1630476622e-05 -1.1630476622e-05 -0.00017620467899 -1.4809530379e-05 1.4809530379e-05
          -0.0001801596487 -9.9453129637e-06 -1.3163457603e-06 -0.00018543406357 -1.0569703361e-05 -1.3380754175e-19
          -0.0001801596487 -9.9453129637e-06 1.3163457603e-06 -0.00017620467899 -1.4809530379e-05 -1.4809530379e-05
          -0.0001801596487 1.3163457603e-06 9.9453129637e-06 -0.00018693766888 2.9375093448e-06 -2.9375093448e-06
          -0.00018925805105 3.3929239505e-06 -2.4098890016e-19 -0.00018693766888 2.9375093448e-06 2.9375093448e-06
          -0.0001801596487 1.3163457603e-06 -9.9453129637e-06 -0.00018543406357 -3.7260602423e-19 1.0569703361e-05
          -0.00018925805105 1.1599505674e-19 -3.3929239505e-06 -0.00018782347699 -4.3276812688e-19 8.1566649992e-20
          -0.00018925805105 -4.9034277048e-19 3.3929239505e-06 -0.00018543406357 8.3781937988e-20 -1.0569703361e-05
          -0.0001801596487 -1.3163457603e-06 9.9453129637e-06 -0.00018693766888 -2.9375093448e-06 -2.9375093448e-06
          -0.00018925805105 -3.3929239505e-06 -1.9962174283e-19 -0.00018693766888 -2.9375093448e-06 2.9375093448e-06
          -0.0001801596487 -1.3163457603e-06 -9.9453129637e-06 -0.00017620467899 1.4809530379e-05 1.4809530379e-05
          -0.0001801596487 9.9453129637e-06 -1.3163457603e-06 -0.00018543406357 1.0569703361e-05 2.1141791652e-20
          -0.0001801596487 9.9453129637e-06 1.3163457603e-06 -0.00017620467899 1.4809530379e-05 -1.4809530379e-05
          -0.00018618292893 -1.4886919792e-05 1.4886919792e-05 -0.00019001304475 -8.7336383038e-06 3.0921094759e-06
          -0.00019722760529 -7.8369747372e-06 6.3954964437e-20 -0.00019001304475 -8.7336383038e-06 -3.0921094759e-06
          -0.00018618292893 -1.4886919792e-05 -1.4886919792e-05 -0.00019001304475 -3.0921094759e-06 8.7336383038e-06
          -0.0002022966995 3.0685954544e-06 -3.0685954544e-06 -0.00020790837031 2.0496818068e-06 -4.6686204355e-19
          -0.0002022966995 3.0685954544e-06 3.0685954544e-06 -0.00019001304475 -3.0921094759e-06 -8.7336383038e-06
          -0.00019722760529 -1.512834719e-19 7.8369747372e-06 -0.00020790837031 -7.3756819679e-20 -2.0496818068e-06
          -0.00020863493337 -1.3962409723e-19 -1.5118973664e-19 -0.00020790837031 -1.4575592055e-19 2.0496818068e-06
          -0.00019722760529 -2.2497953975e-19 -7.8369747372e-06 -0.00019001304475 3.0921094759e-06 8.7336383038e-06
          -0.0002022966995 -3.0685954544e-06 -3.0685954544e-06 -0.00020790837031 -2.0496818068e-06 -3.2190195654e-19
          -0.0002022966995 -3.0685954544e-06 3.0685954544e-06 -0.00019001304475 3.0921094759e-06 -8.7336383038e-06
          -0.00018618292893 1.4886919792e-05 1.4886919792e-05 -0.00019001304475 8.7336383038e-06 3.0921094759e-06
          -0.00019722760529 7.8369747372e-06 -1.7385212247e-20 -0.00019001304475 8.7336383038e-06 -3.0921094759e-06
          -0.00018618292893 1.4886919792e-05 -1.4886919792e-05 -0.00020201847309 -6.7725256581e-06 6.7725256581e-06
          -0.00019915885334 -2.5810722343e-06 3.1391932628e-06 -0.00020542243166 -1.6303807095e-06 -3.6256638788e-19
          -0.00019915885334 -2.5810722343e-06 -3.1391932628e-06 -0.00020201847309 -6.7725256581e-06 -6.7725256581e-06
          -0.00019915885334 -3.1391932628e-06 2.5810722343e-06 -0.00020576623316 2.9402682867e-06 -2.9402682867e-06
          -0.00021145195471 9.5973715191e-07 -2.9441693403e-19 -0.00020576623316 2.9402682867e-06 2.9402682867e-06
          -0.00019915885334 -3.1391932628e-06 -2.5810722343e-06 -0.00020542243166 -2.4349395077e-19 1.6303807095e-06
          -0.00021145195471 -1.8112788062e-20 -9.5973715191e-07 -0.00021344707098 1.4202248875e-19 7.1755639514e-20
          -0.00021145195471 2.738525506e-19 9.5973715191e-07 -0.00020542243166 1.7852083581e-19 -1.6303807095e-06
          -0.00019915885334 3.1391932628e-06 2.5810722343e-06 -0.00020576623316 -2.9402682867e-06 -2.9402682867e-06
          -0.00021145195471 -9.5973715191e-07 2.5280942942e-20 -0.00020576623316 -2.9402682867e-06 2.9402682867e-06
          -0.00019915885334 3.1391932628e-06 -2.5810722343e-06 -0.00020201847309 6.7725256581e-06 6.7725256581e-06
          -0.00019915885334 2.5810722343e-06 3.1391932628e-06 -0.00020542243166 1.6303807095e-06 -1.7540921854e-19
          -0.00019915885334 2.5810722343e-06 -3.1391932628e-06 -0.00020201847309 6.7725256581e-06 -6.7725256581e-06
          -0.00021040869293 -1.9424758916e-06 1.9424758916e-06 -0.00020228146044 -3.5943133676e-07 3.7828667199e-06
          -0.00020429332652 1.0674468753e-06 -4.7969708059e-19 -0.00020228146044 -3.5943133676e-07 -3.7828667199e-06
          -0.00021040869293 -1.9424758916e-06 -1.9424758916e-06 -0.00020228146044 -3.7828667199e-06 3.5943133676e-07
          -0.00020219645929 -7.2626547596e-07 7.2626547596e-07 -0.00020434562441 -1.8506286627e-06 -2.9857774384e-19
          -0.00020219645929 -7.2626547596e-07 -7.2626547596e-07 -0.00020228146044 -3.7828667199e-06 -3.5943133676e-07
          -0.00020429332652 2.1030622277e-19 -1.0674468753e-06 -0.00020434562441 -9.8884453099e-20 1.8506286627e-06
          -0.00020459042267 -4.6726307282e-20 -3.3916375033e-19 -0.00020434562441 -2.5712246698e-20 -1.8506286627e-06
          -0.00020429332652 1.0938721793e-19 1.0674468753e-06 -0.00020228146044 3.7828667199e-06 3.5943133676e-07
          -0.00020219645929 7.2626547596e-07 7.2626547596e-07 -0.00020434562441 1.8506286627e-06 -5.2110607837e-19
          -0.00020219645929 7.2626547596e-07 -7.2626547596e-07 -0.00020228146044 3.7828667199e-06 -3.5943133676e-07
          -0.00021040869293 1.9424758916e-06 1.9424758916e-06 -0.00020228146044 3.5943133676e-07 3.7828667199e-06
          -0.00020429332652 -1.0674468753e-06 -4.8892150277e-20 -0.00020228146044 3.5943133676e-07 -3.7828667199e-06
          -0.00021040869293 1.9424758916e-06 -1.9424758916e-06 -0.00022497643797 -2.3785534794e-07 2.3785534794e-07
          -0.00021708762753 -1.449383418e-06 2.2984214885e-06 -0.00021482203098 1.5623985771e-08 3.2757522594e-20
          -0.00021708762753 -1.449383418e-06 -2.2984214885e-06 -0.00022497643797 -2.3785534794e-07 -2.3785534794e-07
          -0.00021708762753 -2.2984214885e-06 1.449383418e-06 -0.00021309008939 -2.4866690055e-06 2.4866690055e-06
          -0.00021129014711 -2.6612875005e-06 3.6188958334e-19 -0.00021309008939 -2.4866690055e-06 -2.4866690055e-06
          -0.00021708762753 -2.2984214885e-06 -1.449383418e-06 -0.00021482203098 4.4894803576e-19 -1.5623985771e-08
          -0.00021129014711 3.7829041163e-19 2.6612875005e-06 -0.0002091678261 2.9401533261e-19 -3.2265266993e-19
          -0.00021129014711 -1.9583652908e-19 -2.6612875005e-06 -0.00021482203098 -4.0301221021e-23 1.5623985771e-08
          -0.00021708762753 2.2984214885e-06 1.449383418e-06 -0.00021309008939 2.4866690055e-06 2.4866690055e-06
          -0.00021129014711 2.6612875005e-06 -2.6143732431e-19 -0.00021309008939 2.4866690055e-06 -2.4866690055e-06
          -0.00021708762753 2.2984214885e-06 -1.449383418e-06 -0.00022497643797 2.3785534794e-07 2.3785534794e-07
          -0.00021708762753 1.449383418e-06 2.2984214885e-06 -0.00021482203098 -1.5623985771e-08 -2.4060207912e-20
          -0.00021708762753 1.449383418e-06 -2.2984214885e-06 -0.00022497643797 2.3785534794e-07 -2.3785534794e-07
          -0.00023587377249 -6.0694061447e-06 6.0694061447e-06 -0.00022887601794 -8.2414936222e-06 2.6752224883e-06
          -0.00022422753216 -6.2943780057e-06 -2.8964240835e-19 -0.00022887601794 -8.2414936222e-06 -2.6752224883e-06
          -0.00023587377249 -6.0694061447e-06 -6.0694061447e-06 -0.00022887601794 -2.6752224883e-06 8.2414936222e-06
          -0.00022188273974 -4.641725792e-06 4.641725792e-06 -0.00021766340311 -3.5816470247e-06 1.9759524776e-19
          -0.00022188273974 -4.641725792e-06 -4.641725792e-06 -0.00022887601794 -2.6752224883e-06 -8.2414936222e-06
          -0.00022422753216 -1.3764003375e-19 6.2943780057e-06 -0.00021766340311 5.4749450307e-19 3.5816470247e-06
          -0.00021379531051 7.1919400877e-19 1.166751602e-19 -0.00021766340311 4.5018880831e-19 -3.5816470247e-06
          -0.00022422753216 -4.7309122285e-21 -6.2943780057e-06 -0.00022887601794 2.6752224883e-06 8.2414936222e-06
          -0.00022188273974 4.641725792e-06 4.641725792e-06 -0.00021766340311 3.5816470247e-06 1.2579961801e-19
          -0.00022188273974 4.641725792e-06 -4.641725792e-06 -0.00022887601794 2.6752224883e-06 -8.2414936222e-06
          -0.00023587377249 6.0694061447e-06 6.0694061447e-06 -0.00022887601794 8.2414936222e-06 2.6752224883e-06
          -0.00022422753216 6.2943780057e-06 -1.4238454569e-19 -0.00022887601794 8.2414936222e-06 -2.6752224883e-06
          -0.00023587377249 6.0694061447e-06 -6.0694061447e-06 -0.00024948174191 -1.5813775795e-05 1.5813775795e-05
          -0.00024543113804 -1.8416199329e-05 4.4055587649e-06 -0.00024094640397 -1.5642289412e-05 -7.1108747764e-20
          -0.00024543113804 -1.8416199329e-05 -4.4055587649e-06 -0.00024948174191 -1.5813775795e-05 -1.5813775795e-05
          -0.00024543113804 -4.4055587649e-06 1.8416199329e-05 -0.00024043718813 -6.707578547e-06 6.707578547e-06
          -0.00023625243903 -4.7648046814e-06 -1.6142146922e-19 -0.00024043718813 -6.707578547e-06 -6.707578547e-06
          -0.00024543113804 -4.4055587649e-06 -1.8416199329e-05 -0.00024094640397 5.6537542145e-19 1.5642289412e-05
          -0.00023625243903 -8.978813282e-20 4.7648046814e-06 -0.00023251220053 1.4727318361e-19 -1.7614383647e-19
          -0.00023625243903 4.159268563e-20 -4.7648046814e-06 -0.00024094640397 -9.7853373627e-21 -1.5642289412e-05
          -0.00024543113804 4.4055587649e-06 1.8416199329e-05 -0.00024043718813 6.707578547e-06 6.707578547e-06
          -0.00023625243903 4.7648046814e-06 2.2865155289e-19 -0.00024043718813 6.707578547e-06 -6.707578547e-06
          -0.00024543113804 4.4055587649e-06 -1.8416199329e-05 -0.00024948174191 1.5813775795e-05 1.5813775795e-05
          -0.00024543113804 1.8416199329e-05 4.4055587649e-06 -0.00024094640397 1.5642289412e-05 1.7620481034e-19
          -0.00024543113804 1.8416199329e-05 -4.4055587649e-06 -0.00024948174191 1.5813775795e-05 -1.5813775795e-05
          -0.00027117665075 -2.444403786e-05 2.444403786e-05 -0.00026987728793 -2.7443174228e-05 6.9950683221e-06
          -0.00026724151576 -2.3804517042e-05 3.2139857754e-20 -0.00026987728793 -2.7443174228e-05 -6.9950683221e-06