<?xml version="1.0"?>
<VTKFile type="UnstructuredGrid" version="0.1" byte_order="LittleEndian" compressor="vtkZLibDataCompressor">
  <UnstructuredGrid>
    <Piece NumberOfPoints="525" NumberOfCells="525">
      <PointData>
        <DataArray type="Float64" Name="Damage" format="ascii" RangeMin="0" RangeMax="0">
          0 0 0 0 0 0
          0 0 0 0 0 0
          0 0 0 0 0 0
          0 0 0 0 0 0
          0 0 0 0 0 0
          0 0 0 0 0 0
          0 0 0 0 0 0
          0 0 0 0 0 0
          0 0 0 0 0 0
          0 0 0 0 0 0
          0 0 0 0 0 0
          0 0 0 0 0 0
          0 0 0 0 0 0
          0 0 0 0 0 0
          0 0 0 0 0 0
          0 0 0 0 0 0
          0 0 0 0 0 0
          0 0 0 0 0 0
          0 0 0 0 0 0
          0 0 0 0 0 0
          0 0 0 0 0 0
          0 0 0 0 0 0
          0 0 0 0 0 0
          0 0 0 0 0 0
          0 0 0 0 0 0
          0 0 0 0 0 0
          0 0 0 0 0 0
          0 0 0 0 0 0
          0 0 0 0 0 0
          0 0 0 0 0 0
          0 0 0 0 0 0
          0 0 0 0 0 0
          0 0 0 0 0 0
          0 0 0 0 0 0
          0 0 0 0 0 0
          0 0 0 0 0 0
          0 0 0 0 0 0
          0 0 0 0 0 0
          0 0 0 0 0 0
          0 0 0 0 0 0
          0 0 0 0 0 0
          0 0 0 0 0 0
          0 0 0 0 0 0
          0 0 0 0 0 0
          0 0 0 0 0 0
          0 0 0 0 0 0
          0 0 0 0 0 0
          0 0 0 0 0 0
          0 0 0 0 0 0
          0 0 0 0 0 0
          0 0 0 0 0 0
          0 0 0 0 0 0
          0 0 0 0 0 0
          0 0 0 0 0 0
          0 0 0 0 0 0
          0 0 0 0 0 0
          0 0 0 0 0 0
          0 0 0 0 0 0
          0 0 0 0 0 0
          0 0 0 0 0 0
          0 0 0 0 0 0
          0 0 0 0 0 0
          0 0 0 0 0 0
          0 0 0 0 0 0
          0 0 0 0 0 0
          0 0 0 0 0 0
          0 0 0 0 0 0
          0 0 0 0 0 0
          0 0 0 0 0 0
          0 0 0 0 0 0
          0 0 0 0 0 0
          0 0 0 0 0 0
          0 0 0 0 0 0
          0 0 0 0 0 0
          0 0 0 0 0 0
          0 0 0 0 0 0
          0 0 0 0 0 0
          0 0 0 0 0 0
          0 0 0 0 0 0
          0 0 0 0 0 0
          0 0 0 0 0 0
          0 0 0 0 0 0
          0 0 0 0 0 0
          0 0 0 0 0 0
          0 0 0 0 0 0
          0 0 0 0 0 0
          0 0 0 0 0 0
          0 0 0
        </DataArray>
        <DataArray type="Float64" Name="Dilatation" format="ascii" RangeMin="-0.011108390733" RangeMax="0.0032851562607">
          -0.00045208574022 -0.0010993977707 -0.0037605818806 -0.0010993977707 -0.00045208574022 -0.0010993977707
          -0.00048291196821 -0.00029178406311 -0.00048291196821 -0.0010993977707 -0.0037605818806 -0.00029178406311
          -0.0013487404986 -0.00029178406311 -0.0037605818806 -0.0010993977707 -0.00048291196821 -0.00029178406311
          -0.00048291196821 -0.0010993977707 -0.00045208574022 -0.0010993977707 -0.0037605818806 -0.0010993977707
          -0.00045208574022 -0.0058275742404 -0.002637503678 -0.0042867639468 -0.002637503678 -0.0058275742404
          -0.002637503678 0.0016922259872 -0.00038523234607 0.0016922259872 -0.002637503678 -0.0042867639468
          -0.00038523234607 -0.0023181699835 -0.00038523234607 -0.0042867639468 -0.002637503678 0.0016922259872
          -0.00038523234607 0.0016922259872 -0.002637503678 -0.0058275742404 -0.002637503678 -0.0042867639468
          -0.002637503678 -0.0058275742404 -0.0078588555966 -0.0036995785008 -0.0038658488073 -0.0036995785008
          -0.0078588555966 -0.0036995785008 0.0021705826809 -0.00049807396078 0.0021705826809 -0.0036995785008
          -0.0038658488073 -0.00049807396078 -0.0023538095765 -0.00049807396078 -0.0038658488073 -0.0036995785008
          0.0021705826809 -0.00049807396078 0.0021705826809 -0.0036995785008 -0.0078588555966 -0.0036995785008
          -0.0038658488073 -0.0036995785008 -0.0078588555966 -0.0045631294697 -0.0038655841729 -0.0027339528946
          -0.0038655841729 -0.0045631294697 -0.0038655841729 -0.00059240232972 -0.0018840672135 -0.00059240232972
          -0.0038655841729 -0.0027339528946 -0.0018840672135 -0.0022149918372 -0.0018840672135 -0.0027339528946
          -0.0038655841729 -0.00059240232972 -0.0018840672135 -0.00059240232972 -0.0038655841729 -0.0045631294697
          -0.0038655841729 -0.0027339528946 -0.0038655841729 -0.0045631294697 0.002258769878 -0.0010681761925
          6.9296078855e-05 -0.0010681761925 0.002258769878 -0.0010681761925 -0.0019833926 -0.0018416955818
          -0.0019833926 -0.0010681761925 6.9296078855e-05 -0.0018416955818 -0.00093744030798 -0.0018416955818
          6.9296078855e-05 -0.0010681761925 -0.0019833926 -0.0018416955818 -0.0019833926 -0.0010681761925
          0.002258769878 -0.0010681761925 6.9296078856e-05 -0.0010681761925 0.002258769878 0.0031748955812
          -0.0012986149285 -2.5746559268e-05 -0.0012986149285 0.0031748955812 -0.0012986149285 -0.0043905266108
          -0.0027653257634 -0.0043905266108 -0.0012986149285 -2.5746559268e-05 -0.0027653257634 -0.00093864738973
          -0.0027653257634 -2.5746559268e-05 -0.0012986149285 -0.0043905266108 -0.0027653257634 -0.0043905266108
          -0.0012986149285 0.0031748955812 -0.0012986149285 -2.5746559268e-05 -0.0012986149285 0.0031748955812
          0.0032851562607 -0.00092432595001 -0.00075155365338 -0.00092432595001 0.0032851562607 -0.00092432595001
          -0.0041613441644 -0.002408019311 -0.0041613441644 -0.00092432595001 -0.00075155365338 -0.002408019311
          -0.00086832338571 -0.002408019311 -0.00075155365338 -0.00092432595001 -0.0041613441644 -0.002408019311
          -0.0041613441644 -0.00092432595001 0.0032851562607 -0.00092432595001 -0.00075155365338 -0.00092432595001
          0.0032851562607 -0.00092815798324 -0.0025402395132 -0.0025402417985 -0.0025402395132 -0.00092815798324
          -0.0025402395132 -0.0039317361784 -0.0023825270498 -0.0039317361784 -0.0025402395132 -0.0025402417985
          -0.0023825270498 -0.0014043088595 -0.0023825270498 -0.0025402417985 -0.0025402395132 -0.0039317361784
          -0.0023825270498 -0.0039317361784 -0.0025402395132 -0.00092815798324 -0.0025402395132 -0.0025402417985
          -0.0025402395132 -0.00092815798324 -0.0035153064523 -0.0030095112718 -0.0032954907504 -0.0030095112718
          -0.0035153064523 -0.0030095112718 -0.0025415331923 -0.0019287045388 -0.0025415331923 -0.0030095112718
          -0.0032954907504 -0.0019287045388 -0.0016808024314 -0.0019287045388 -0.0032954907504 -0.0030095112718
          -0.0025415331923 -0.0019287045388 -0.0025415331923 -0.0030095112718 -0.0035153064523 -0.0030095112718
          -0.0032954907504 -0.0030095112718 -0.0035153064523 -0.0063234683271 -0.0046407057176 -0.0043872033126
          -0.0046407057176 -0.0063234683271 -0.0046407057176 -0.0034003012839 -0.002875054109 -0.0034003012839
          -0.0046407057176 -0.0043872033126 -0.002875054109 -0.0025672083924 -0.002875054109 -0.0043872033126
          -0.0046407057176 -0.0034003012839 -0.002875054109 -0.0034003012839 -0.0046407057176 -0.0063234683271
          -0.0046407057176 -0.0043872033126 -0.0046407057176 -0.0063234683271 -0.0066309535317 -0.0057923917557
          -0.0049952015613 -0.0057923917557 -0.0066309535317 -0.0057923917557 -0.0053857128042 -0.0044982183966
          -0.0053857128042 -0.0057923917557 -0.0049952015613 -0.0044982183966 -0.0035283497696 -0.0044982183966
          -0.0049952015613 -0.0057923917557 -0.0053857128042 -0.0044982183966 -0.0053857128042 -0.0057923917557
          -0.0066309535317 -0.0057923917557 -0.0049952015613 -0.0057923917557 -0.0066309535317 -0.0048840095683
          -0.0055600972876 -0.0044607085187 -0.0055600972876 -0.0048840095683 -0.0055600972876 -0.0069242644135
          -0.0054825870691 -0.0069242644135 -0.0055600972876 -0.0044607085187 -0.0054825870691 -0.0036513825078
          -0.0054825870691 -0.0044607085187 -0.0055600972876 -0.0069242644135 -0.0054825870691 -0.0069242644135
          -0.0055600972876 -0.0048840095683 -0.0055600972876 -0.0044607085187 -0.0055600972876 -0.0048840095683
          -0.0038476633444 -0.0056996649972 -0.0045027198833 -0.0056996649972 -0.0038476633444 -0.0056996649972
          -0.0086933659019 -0.0067421515605 -0.0086933659019 -0.0056996649972 -0.0045027198833 -0.0067421515605
          -0.0042325667185 -0.0067421515605 -0.0045027198833 -0.0056996649972 -0.0086933659019 -0.0067421515605
          -0.0086933659019 -0.0056996649972 -0.0038476633444 -0.0056996649972 -0.0045027198833 -0.0056996649972
          -0.0038476633444 -0.0030791851157 -0.0053199788977 -0.0043064380794 -0.0053199788977 -0.0030791851157
          -0.0053199788977 -0.0092606020203 -0.0071873875344 -0.0092606020203 -0.0053199788977 -0.0043064380794
          -0.0071873875344 -0.0045082444122 -0.0071873875344 -0.0043064380794 -0.0053199788977 -0.0092606020203
          -0.0071873875344 -0.0092606020203 -0.0053199788977 -0.0030791851157 -0.0053199788977 -0.0043064380794
          -0.0053199788977 -0.0030791851157 -0.0029461751333 -0.0046853987339 -0.003861688106 -0.0046853987339
          -0.0029461751333 -0.0046853987339 -0.0083171792333 -0.0064179402734 -0.0083171792333 -0.0046853987339
          -0.003861688106 -0.0064179402734 -0.0039967546117 -0.0064179402734 -0.003861688106 -0.0046853987339
          -0.0083171792333 -0.0064179402734 -0.0083171792333 -0.0046853987339 -0.0029461751333 -0.0046853987339
          -0.003861688106 -0.0046853987339 -0.0029461751333 -0.0030415951695 -0.0041879245965 -0.0034500812911
          -0.0041879245965 -0.0030415951695 -0.0041879245965 -0.0069815688924 -0.0053353613348 -0.0069815688924
          -0.0041879245965 -0.0034500812911 -0.0053353613348 -0.0033451617462 -0.0053353613348 -0.0034500812911
          -0.0041879245965 -0.0069815688924 -0.0053353613348 -0.0069815688924 -0.0041879245965 -0.0030415951695
          -0.0041879245965 -0.0034500812911 -0.0041879245965 -0.0030415951695 -0.0030677683315 -0.0036890392745
          -0.0032288941626 -0.0036890392745 -0.0030677683315 -0.0036890392745 -0.0045065987802 -0.0033524388128
          -0.0045065987802 -0.0036890392745 -0.0032288941626 -0.0033524388128 -0.0019501303794 -0.0033524388128
          -0.0032288941626 -0.0036890392745 -0.0045065987802 -0.0033524388128 -0.0045065987802 -0.0036890392745
          -0.0030677683315 -0.0036890392745 -0.0032288941626 -0.0036890392745 -0.0030677683315 -0.004341217853
          -0.0046316567307 -0.0045573583968 -0.0046316567307 -0.004341217853 -0.0046316567307 -0.0050941962146
          -0.0050970281675 -0.0050941962146 -0.0046316567307 -0.0045573583968 -0.0050970281675 -0.0050928190375
          -0.0050970281675 -0.0045573583968 -0.0046316567307 -0.0050941962146 -0.0050970281675 -0.0050941962146
          -0.0046316567307 -0.004341217853 -0.0046316567307 -0.0045573583968 -0.0046316567307 -0.004341217853
          -0.0010056662714 -0.0018224016337 -0.0034310970827 -0.0018224016337 -0.0010056662714 -0.0018224016337
          -0.0018050673355 -0.0038776178746 -0.0018050673355 -0.0018224016337 -0.0034310970827 -0.0038776178746
          -0.011108390733 -0.0038776178746 -0.0034310970827 -0.0018224016337 -0.0018050673355 -0.0038776178746
          -0.0018050673355 -0.0018224016337 -0.0010056662714 -0.0018224016337 -0.0034310970827 -0.0018224016337
          -0.0010056662714 0.0024654794514 -0.00046807391302 -0.0031747260507 -0.00046807391302 0.0024654794514
          -0.00046807391302 -0.004556221676 -0.0040642739544 -0.004556221676 -0.00046807391301 -0.0031747260507
          -0.0040642739544 -0.004681009204 -0.0040642739544 -0.0031747260507 -0.00046807391301 -0.004556221676
          -0.0040642739544 -0.004556221676 -0.00046807391301 0.0024654794514 -0.00046807391301 -0.0031747260507
          -0.00046807391302 0.0024654794514 0.0026093590765 0.0003315214682 -0.00096752039107 0.0003315214682
          0.0026093590765 0.0003315214682 -0.0030735550595 -0.0010125424351 -0.0030735550595 0.0003315214682
          -0.00096752039107 -0.0010125424351 -0.00079001787265 -0.0010125424351 -0.00096752039107 0.0003315214682
          -0.0030735550595 -0.0010125424351 -0.0030735550595 0.0003315214682 0.0026093590765 0.0003315214682
          -0.00096752039107 0.0003315214682 0.0026093590765
        </DataArray>
        <DataArray type="Float64" Name="Displacement" NumberOfComponents="3" format="ascii" RangeMin="0.00014153628146" RangeMax="0.00040861421656">
          -0.00016302899406 2.8713835565e-06 -2.8713835565e-06 -0.00017377306438 6.1043200384e-06 2.9202682695e-06
          -0.00017901897265 1.3490296234e-05 -2.6843357332e-19 -0.00017377306438 6.1043200384e-06 -2.9202682695e-06
          -0.00016302899406 2.8713835565e-06 2.8713835565e-06 -0.00017377306438 -2.9202682695e-06 -6.1043200384e-06
          -0.00018527871446 9.9627751427e-07 -9.9627751427e-07 -0.00018519903161 -3.6269892746e-06 -8.0967658857e-20
          -0.00018527871446 9.9627751427e-07 9.9627751427e-07 -0.00017377306438 -2.9202682695e-06 6.1043200384e-06
          -0.00017901897265 5.4167650168e-19 -1.3490296234e-05 -0.00018519903161 3.8264353689e-19 3.6269892746e-06
          -0.00018707125939 -2.2327885344e-19 -4.3133003277e-19 -0.00018519903161 -1.9890712346e-19 -3.6269892746e-06
          -0.00017901897265 -4.1238666023e-19 1.3490296234e-05 -0.00017377306438 2.9202682695e-06 -6.1043200384e-06
          -0.00018527871446 -9.9627751427e-07 -9.9627751427e-07 -0.00018519903161 3.6269892746e-06 -2.3243915096e-19
          -0.00018527871446 -9.9627751427e-07 9.9627751427e-07 -0.00017377306438 2.9202682695e-06 6.1043200384e-06
          -0.00016302899406 -2.8713835565e-06 -2.8713835565e-06 -0.00017377306438 -6.1043200384e-06 2.9202682695e-06
          -0.00017901897265 -1.3490296234e-05 -1.9990031358e-19 -0.00017377306438 -6.1043200384e-06 -2.9202682695e-06
          -0.00016302899406 -2.8713835565e-06 2.8713835565e-06 -0.0001519715676 1.1260192714e-05 -1.1260192714e-05
          -0.00016003911399 8.7744464151e-06 4.3089377867e-07 -0.00015984226125 1.2744107487e-05 -1.3847068458e-19
          -0.00016003911399 8.7744464151e-06 -4.3089377867e-07 -0.0001519715676 1.1260192714e-05 1.1260192714e-05
          -0.00016003911399 -4.3089377867e-07 -8.7744464151e-06 -0.00016781028671 -7.7043738709e-06 7.7043738709e-06
          -0.00016277089658 -8.5440228445e-06 -2.4480875744e-19 -0.00016781028671 -7.7043738709e-06 -7.7043738709e-06
          -0.00016003911399 -4.3089377867e-07 8.7744464151e-06 -0.00015984226125 8.7083711695e-20 -1.2744107487e-05
          -0.00016277089658 6.6714570723e-19 8.5440228445e-06 -0.0001670602237 1.1116735245e-20 -5.1269987252e-20
          -0.00016277089658 -1.0558496898e-19 -8.5440228445e-06 -0.00015984226125 8.60970419e-20 1.2744107487e-05
          -0.00016003911399 4.3089377867e-07 -8.7744464151e-06 -0.00016781028671 7.7043738709e-06 7.7043738709e-06
          -0.00016277089658 8.5440228445e-06 -1.0526108933e-19 -0.00016781028671 7.7043738709e-06 -7.7043738709e-06
          -0.00016003911399 4.3089377867e-07 8.7744464151e-06 -0.0001519715676 -1.1260192714e-05 -1.1260192714e-05
          -0.00016003911399 -8.7744464151e-06 4.3089377867e-07 -0.00015984226125 -1.2744107487e-05 -3.6722107431e-19
          -0.00016003911399 -8.7744464151e-06 -4.3089377867e-07 -0.0001519715676 -1.1260192714e-05 1.1260192714e-05
          -0.00016518845643 1.2328942218e-05 -1.2328942218e-05 -0.00017645710949 8.2484229173e-06 -3.7544028592e-06
          -0.00017246311781 8.8850678929e-06 -3.6911395298e-20 -0.00017645710949 8.2484229173e-06 3.7544028592e-06
          -0.00016518845643 1.2328942218e-05 1.2328942218e-05 -0.00017645710949 3.7544028592e-06 -8.2484229173e-06
          -0.00017934941051 -9.8563654561e-06 9.8563654561e-06 -0.00017119015455 -7.4085963362e-06 -2.0983021451e-19
          -0.00017934941051 -9.8563654561e-06 -9.8563654561e-06 -0.00017645710949 3.7544028592e-06 8.2484229173e-06
          -0.00017246311781 -1.7485458959e-20 -8.8850678929e-06 -0.00017119015455 5.263460057e-19 7.4085963362e-06
          -0.00016771703285 5.6552168016e-19 4.276822206e-19 -0.00017119015455 -1.0458637317e-20 -7.4085963362e-06
          -0.00017246311781 -1.4164909011e-19 8.8850678929e-06 -0.00017645710949 -3.7544028592e-06 -8.2484229173e-06
          -0.00017934941051 9.8563654561e-06 9.8563654561e-06 -0.00017119015455 7.4085963362e-06 2.6959970526e-19
          -0.00017934941051 9.8563654561e-06 -9.8563654561e-06 -0.00017645710949 -3.7544028592e-06 8.2484229173e-06
          -0.00016518845643 -1.2328942218e-05 -1.2328942218e-05 -0.00017645710949 -8.2484229173e-06 -3.7544028592e-06
          -0.00017246311781 -8.8850678929e-06 -4.5946865243e-19 -0.00017645710949 -8.2484229173e-06 3.7544028592e-06
          -0.00016518845643 -1.2328942218e-05 1.2328942218e-05 -0.00017076347511 2.2192320201e-06 -2.2192320201e-06
          -0.00017891248512 1.0271539241e-06 -5.9584515914e-06 -0.00017569449915 9.5326564987e-07 3.2404064243e-19
          -0.00017891248512 1.0271539241e-06 5.9584515914e-06 -0.00017076347511 2.2192320201e-06 2.2192320201e-06
          -0.00017891248512 5.9584515914e-06 -1.0271539241e-06 -0.00018205610056 -6.0671539182e-06 6.0671539182e-06
          -0.00017541130994 -3.0390280733e-06 -1.1750763126e-19 -0.00018205610056 -6.0671539182e-06 -6.0671539182e-06
          -0.00017891248512 5.9584515914e-06 1.0271539241e-06 -0.00017569449915 2.1029262741e-19 -9.5326564987e-07
          -0.00017541130994 3.2960303657e-19 3.0390280733e-06 -0.00016993242915 1.7243982765e-19 8.5248486301e-20
          -0.00017541130994 -1.8511475759e-19 -3.0390280733e-06 -0.00017569449915 -3.2767953254e-19 9.5326564987e-07
          -0.00017891248512 -5.9584515914e-06 -1.0271539241e-06 -0.00018205610056 6.0671539182e-06 6.0671539182e-06
          -0.00017541130994 3.0390280733e-06 -1.1964292834e-19 -0.00018205610056 6.0671539182e-06 -6.0671539182e-06
          -0.00017891248512 -5.9584515914e-06 1.0271539241e-06 -0.00017076347511 -2.2192320201e-06 -2.2192320201e-06
          -0.00017891248512 -1.0271539241e-06 -5.9584515914e-06 -0.00017569449915 -9.5326564987e-07 -8.1595230148e-20
          -0.00017891248512 -1.0271539241e-06 5.9584515914e-06 -0.00017076347511 -2.2192320201e-06 2.2192320201e-06
          -0.00016572468713 -1.1630476622e-05 1.1630476622e-05 -0.00017534900152 -9.0351570312e-06 -3.3064672684e-06
          -0.00017628968729 -9.1359290539e-06 -4.1115087085e-19 -0.00017534900152 -9.0351570312e-06 3.3064672684e-06
          -0.00016572468713 -1.1630476622e-05 -1.1630476622e-05 -0.00017534900152 3.3064672684e-06 9.0351570312e-06
          -0.00018409705614 -2.4034728325e-06 2.4034728325e-06 -0.00018188460033 -4.5687999455e-07 -4.2598536974e-19
          -0.00018409705614 -2.4034728325e-06 -2.4034728325e-06 -0.00017534900152 3.3064672684e-06 -9.0351570312e-06
          -0.00017628968729 1.2373086448e-19 9.1359290539e-06 -0.00018188460033 -4.8387285138e-20 4.5687999455e-07
          -0.0001771389504 -2.3382386354e-19 -4.9311385941e-19 -0.00018188460033 8.3906841969e-20 -4.5687999455e-07
          -0.00017628968729 -3.8168513445e-19 -9.1359290539e-06 -0.00017534900152 -3.3064672684e-06 9.0351570312e-06
          -0.00018409705614 2.4034728325e-06 2.4034728325e-06 -0.00018188460033 4.5687999455e-07 4.8868200758e-20
          -0.00018409705614 2.4034728325e-06 -2.4034728325e-06 -0.00017534900152 -3.3064672684e-06 -9.0351570312e-06
          -0.00016572468713 1.1630476622e-05 1.1630476622e-05 -0.00017534900152 9.0351570312e-06 -3.3064672684e-06
          -0.00017628968729 9.1359290539e-06 7.732663209e-20 -0.00017534900152 9.0351570312e-06 3.3064672684e-06
          -0.00016572468713 1.1630476622e-05 -1.1630476622e-05 -0.00017620467899 -1.4809530379e-05 1.4809530379e-05
          -0.0001801596487 -9.9453129637e-06 -1.3163457603e-06 -0.00018543406357 -1.0569703361e-05 -4.4433405077e-19
          -0.0001801596487 -9.9453129637e-06 1.3163457603e-06 -0.00017620467899 -1.4809530379e-05 -1.4809530379e-05
          -0.0001801596487 1.3163457603e-06 9.9453129637e-06 -0.00018693766888 2.9375093448e-06 -2.9375093448e-06
          -0.00018925805105 3.3929239505e-06 1.5011371476e-19 -0.00018693766888 2.9375093448e-06 2.9375093448e-06
          -0.0001801596487 1.3163457603e-06 -9.9453129637e-06 -0.00018543406357 -3.6418485964e-19 1.0569703361e-05
          -0.00018925805105 -9.6351577863e-20 -3.3929239505e-06 -0.00018782347699 -6.4124197772e-19 -1.6433139772e-20
          -0.00018925805105 -5.8888887947e-19 3.3929239505e-06 -0.00018543406357 -2.0741773596e-19 -1.0569703361e-05
          -0.0001801596487 -1.3163457603e-06 9.9453129637e-06 -0.00018693766888 -2.9375093448e-06 -2.9375093448e-06
          -0.00018925805105 -3.3929239505e-06 -4.074689634e-20 -0.00018693766888 -2.9375093448e-06 2.9375093448e-06
          -0.0001801596487 -1.3163457603e-06 -9.9453129637e-06 -0.00017620467899 1.4809530379e-05 1.4809530379e-05
          -0.0001801596487 9.9453129637e-06 -1.3163457603e-06 -0.00018543406357 1.0569703361e-05 3.7782741014e-19
          -0.0001801596487 9.9453129637e-06 1.3163457603e-06 -0.00017620467899 1.4809530379e-05 -1.4809530379e-05
          -0.00018618292893 -1.4886919792e-05 1.4886919792e-05 -0.00019001304475 -8.7336383038e-06 3.0921094759e-06
          -0.00019722760529 -7.8369747372e-06 1.9293983118e-20 -0.00019001304475 -8.7336383038e-06 -3.0921094759e-06
          -0.00018618292893 -1.4886919792e-05 -1.4886919792e-05 -0.00019001304475 -3.0921094759e-06 8.7336383038e-06
          -0.0002022966995 3.0685954544e-06 -3.0685954544e-06 -0.00020790837031 2.0496818068e-06 -3.4990495171e-20
          -0.0002022966995 3.0685954544e-06 3.0685954544e-06 -0.00019001304475 -3.0921094759e-06 -8.7336383038e-06
          -0.00019722760529 -1.9735316562e-20 7.8369747372e-06 -0.00020790837031 -3.1296006456e-19 -2.0496818068e-06
          -0.00020863493337 -2.1047069238e-19 -3.4049191932e-19 -0.00020790837031 -2.3165161615e-19 2.0496818068e-06
          -0.00019722760529 -2.7671364572e-19 -7.8369747372e-06 -0.00019001304475 3.0921094759e-06 8.7336383038e-06
          -0.0002022966995 -3.0685954544e-06 -3.0685954544e-06 -0.00020790837031 -2.0496818068e-06 1.0536475653e-19
          -0.0002022966995 -3.0685954544e-06 3.0685954544e-06 -0.00019001304475 3.0921094759e-06 -8.7336383038e-06
          -0.00018618292893 1.4886919792e-05 1.4886919792e-05 -0.00019001304475 8.7336383038e-06 3.0921094759e-06
          -0.00019722760529 7.8369747372e-06 5.1194241076e-20 -0.00019001304475 8.7336383038e-06 -3.0921094759e-06
          -0.00018618292893 1.4886919792e-05 -1.4886919792e-05 -0.00020201847309 -6.7725256581e-06 6.7725256581e-06
          -0.00019915885334 -2.5810722343e-06 3.1391932628e-06 -0.00020542243166 -1.6303807095e-06 -3.2595600041e-19
          -0.00019915885334 -2.5810722343e-06 -3.1391932628e-06 -0.00020201847309 -6.7725256581e-06 -6.7725256581e-06
          -0.00019915885334 -3.1391932628e-06 2.5810722343e-06 -0.00020576623316 2.9402682867e-06 -2.9402682867e-06
          -0.00021145195471 9.5973715191e-07 -2.0691983866e-19 -0.00020576623316 2.9402682867e-06 2.9402682867e-06
          -0.00019915885334 -3.1391932628e-06 -2.5810722343e-06 -0.00020542243166 -2.121228286e-19 1.6303807095e-06
          -0.00021145195471 -3.0847764143e-20 -9.5973715191e-07 -0.00021344707098 -6.6042243583e-20 -1.5705907945e-19
          -0.00021145195471 3.0662143077e-19 9.5973715191e-07 -0.00020542243166 -9.3755692476e-20 -1.6303807095e-06
          -0.00019915885334 3.1391932628e-06 2.5810722343e-06 -0.00020576623316 -2.9402682867e-06 -2.9402682867e-06
          -0.00021145195471 -9.5973715191e-07 -3.7042859558e-19 -0.00020576623316 -2.9402682867e-06 2.9402682867e-06
          -0.00019915885334 3.1391932628e-06 -2.5810722343e-06 -0.00020201847309 6.7725256581e-06 6.7725256581e-06
          -0.00019915885334 2.5810722343e-06 3.1391932628e-06 -0.00020542243166 1.6303807095e-06 3.5071646914e-19
          -0.00019915885334 2.5810722343e-06 -3.1391932628e-06 -0.00020201847309 6.7725256581e-06 -6.7725256581e-06
          -0.00021040869293 -1.9424758916e-06 1.9424758916e-06 -0.00020228146044 -3.5943133676e-07 3.7828667199e-06
          -0.00020429332652 1.0674468753e-06 -3.9924537984e-19 -0.00020228146044 -3.5943133676e-07 -3.7828667199e-06
          -0.00021040869293 -1.9424758916e-06 -1.9424758916e-06 -0.00020228146044 -3.7828667199e-06 3.5943133676e-07
          -0.00020219645929 -7.2626547596e-07 7.2626547596e-07 -0.00020434562441 -1.8506286627e-06 1.6059921213e-19
          -0.00020219645929 -7.2626547596e-07 -7.2626547596e-07 -0.00020228146044 -3.7828667199e-06 -3.5943133676e-07
          -0.00020429332652 6.1250980746e-20 -1.0674468753e-06 -0.00020434562441 -1.6678325869e-19 1.8506286627e-06
          -0.00020459042267 7.2396940804e-20 -2.1074475708e-20 -0.00020434562441 -1.2152418003e-19 -1.8506286627e-06
          -0.00020429332652 -1.9346060423e-20 1.0674468753e-06 -0.00020228146044 3.7828667199e-06 3.5943133676e-07
          -0.00020219645929 7.2626547596e-07 7.2626547596e-07 -0.00020434562441 1.8506286627e-06 5.7423472297e-19
          -0.00020219645929 7.2626547596e-07 -7.2626547596e-07 -0.00020228146044 3.7828667199e-06 -3.5943133676e-07
          -0.00021040869293 1.9424758916e-06 1.9424758916e-06 -0.00020228146044 3.5943133676e-07 3.7828667199e-06
          -0.00020429332652 -1.0674468753e-06 4.3849578379e-20 -0.00020228146044 3.5943133676e-07 -3.7828667199e-06
          -0.00021040869293 1.9424758916e-06 -1.9424758916e-06 -0.00022497643797 -2.3785534794e-07 2.3785534794e-07
          -0.00021708762753 -1.449383418e-06 2.2984214885e-06 -0.00021482203098 1.5623985771e-08 -8.8846845945e-20
          -0.00021708762753 -1.449383418e-06 -2.2984214885e-06 -0.00022497643797 -2.3785534794e-07 -2.3785534794e-07
          -0.00021708762753 -2.2984214885e-06 1.449383418e-06 -0.00021309008939 -2.4866690055e-06 2.4866690055e-06
          -0.00021129014711 -2.6612875005e-06 4.6655364623e-19 -0.00021309008939 -2.4866690055e-06 -2.4866690055e-06
          -0.00021708762753 -2.2984214885e-06 -1.449383418e-06 -0.00021482203098 4.4091350237e-19 -1.5623985771e-08
          -0.00021129014711 5.0578009514e-20 2.6612875005e-06 -0.0002091678261 6.9342002304e-20 -3.9373203812e-19
          -0.00021129014711 1.9635884687e-19 -2.6612875005e-06 -0.00021482203098 -1.3189238007e-19 1.5623985771e-08
          -0.00021708762753 2.2984214885e-06 1.449383418e-06 -0.00021309008939 2.4866690055e-06 2.4866690055e-06
          -0.00021129014711 2.6612875005e-06 1.1188185182e-19 -0.00021309008939 2.4866690055e-06 -2.4866690055e-06
          -0.00021708762753 2.2984214885e-06 -1.449383418e-06 -0.00022497643797 2.3785534794e-07 2.3785534794e-07
          -0.00021708762753 1.449383418e-06 2.2984214885e-06 -0.00021482203098 -1.5623985771e-08 -5.5669610444e-20
          -0.00021708762753 1.449383418e-06 -2.2984214885e-06 -0.00022497643797 2.3785534794e-07 -2.3785534794e-07
          -0.00023587377249 -6.0694061447e-06 6.0694061447e-06 -0.00022887601794 -8.2414936222e-06 2.6752224883e-06
          -0.00022422753216 -6.2943780057e-06 -5.6380435399e-20 -0.00022887601794 -8.2414936222e-06 -2.6752224883e-06
          -0.00023587377249 -6.0694061447e-06 -6.0694061447e-06 -0.00022887601794 -2.6752224883e-06 8.2414936222e-06
          -0.00022188273974 -4.641725792e-06 4.641725792e-06 -0.00021766340311 -3.5816470247e-06 2.2980931431e-19
          -0.00022188273974 -4.641725792e-06 -4.641725792e-06 -0.00022887601794 -2.6752224883e-06 -8.2414936222e-06
          -0.00022422753216 2.4194106253e-19 6.2943780057e-06 -0.00021766340311 3.2349484703e-19 3.5816470247e-06
          -0.00021379531051 9.2399043065e-20 1.8678502892e-19 -0.00021766340311 3.0960689372e-19 -3.5816470247e-06
          -0.00022422753216 -8.3405704819e-20 -6.2943780057e-06 -0.00022887601794 2.6752224883e-06 8.2414936222e-06
          -0.00022188273974 4.641725792e-06 4.641725792e-06 -0.00021766340311 3.5816470247e-06 -1.6083101419e-19
          -0.00022188273974 4.641725792e-06 -4.641725792e-06 -0.00022887601794 2.6752224883e-06 -8.2414936222e-06
          -0.00023587377249 6.0694061447e-06 6.0694061447e-06 -0.00022887601794 8.2414936222e-06 2.6752224883e-06
          -0.00022422753216 6.2943780057e-06 2.626962779e-19 -0.00022887601794 8.2414936222e-06 -2.6752224883e-06
          -0.00023587377249 6.0694061447e-06 -6.0694061447e-06 -0.00024948174191 -1.5813775795e-05 1.5813775795e-05
          -0.00024543113804 -1.8416199329e-05 4.4055587649e-06 -0.00024094640397 -1.5642289412e-05 -1.5047773287e-19
          -0.00024543113804 -1.8416199329e-05 -4.4055587649e-06 -0.00024948174191 -1.5813775795e-05 -1.5813775795e-05
          -0.00024543113804 -4.4055587649e-06 1.8416199329e-05 -0.00024043718813 -6.707578547e-06 6.707578547e-06
          -0.00023625243903 -4.7648046814e-06 2.8552387433e-19 -0.00024043718813 -6.707578547e-06 -6.707578547e-06
          -0.00024543113804 -4.4055587649e-06 -1.8416199329e-05 -0.00024094640397 4.4081421494e-19 1.5642289412e-05
          -0.00023625243903 -3.1677737033e-20 4.7648046814e-06 -0.00023251220053 2.3466283673e-19 1.1655797041e-19
          -0.00023625243903 1.2306527076e-19 -4.7648046814e-06 -0.00024094640397 2.942986455e-19 -1.5642289412e-05
          -0.00024543113804 4.4055587649e-06 1.8416199329e-05 -0.00024043718813 6.707578547e-06 6.707578547e-06
          -0.00023625243903 4.7648046814e-06 2.2173638167e-19 -0.00024043718813 6.707578547e-06 -6.707578547e-06
          -0.00024543113804 4.4055587649e-06 -1.8416199329e-05 -0.00024948174191 1.5813775795e-05 1.5813775795e-05
          -0.00024543113804 1.8416199329e-05 4.4055587649e-06 -0.00024094640397 1.5642289412e-05 -4.1789666891e-20
          -0.00024543113804 1.8416199329e-05 -4.4055587649e-06 -0.00024948174191 1.5813775795e-05 -1.5813775795e-05
          -0.00027117665075 -2.444403786e-05 2.444403786e-05 -0.00026987728793 -2.7443174228e-05 6.9950683221e-06
          -0.00026724151576 -2.3804517042e-05 1.8108588709e-19 -0.00026987728793 -2.7443174228e-05 -6.9950683221e-06