<?xml version="1.0"?>
<VTKFile type="UnstructuredGrid" version="0.1" byte_order="LittleEndian" compressor="vtkZLibDataCompressor">
  <UnstructuredGrid>
    <Piece NumberOfPoints="525" NumberOfCells="525">
      <PointData>
        <DataArray type="Float64" Name="Damage" format="ascii" RangeMin="0" RangeMax="0">
          0 0 0 0 0 0
          0 0 0 0 0 0
          0 0 0 0 0 0
          0 0 0 0 0 0
          0 0 0 0 0 0
          0 0 0 0 0 0
          0 0 0 0 0 0
          0 0 0 0 0 0
          0 0 0 0 0 0
          0 0 0 0 0 0
          0 0 0 0 0 0
          0 0 0 0 0 0
          0 0 0 0 0 0
          0 0 0 0 0 0
          0 0 0 0 0 0
          0 0 0 0 0 0
          0 0 0 0 0 0
          0 0 0 0 0 0
          0 0 0 0 0 0
          0 0 0 0 0 0
          0 0 0 0 0 0
          0 0 0 0 0 0
          0 0 0 0 0 0
          0 0 0 0 0 0
          0 0 0 0 0 0
          0 0 0 0 0 0
          0 0 0 0 0 0
          0 0 0 0 0 0
          0 0 0 0 0 0
          0 0 0 0 0 0
          0 0 0 0 0 0
          0 0 0 0 0 0
          0 0 0 0 0 0
          0 0 0 0 0 0
          0 0 0 0 0 0
          0 0 0 0 0 0
          0 0 0 0 0 0
          0 0 0 0 0 0
          0 0 0 0 0 0
          0 0 0 0 0 0
          0 0 0 0 0 0
          0 0 0 0 0 0
          0 0 0 0 0 0
          0 0 0 0 0 0
          0 0 0 0 0 0
          0 0 0 0 0 0
          0 0 0 0 0 0
          0 0 0 0 0 0
          0 0 0 0 0 0
          0 0 0 0 0 0
          0 0 0 0 0 0
          0 0 0 0 0 0
          0 0 0 0 0 0
          0 0 0 0 0 0
          0 0 0 0 0 0
          0 0 0 0 0 0
          0 0 0 0 0 0
          0 0 0 0 0 0
          0 0 0 0 0 0
          0 0 0 0 0 0
          0 0 0 0 0 0
          0 0 0 0 0 0
          0 0 0 0 0 0
          0 0 0 0 0 0
          0 0 0 0 0 0
          0 0 0 0 0 0
          0 0 0 0 0 0
          0 0 0 0 0 0
          0 0 0 0 0 0
          0 0 0 0 0 0
          0 0 0 0 0 0
          0 0 0 0 0 0
          0 0 0 0 0 0
          0 0 0 0 0 0
          0 0 0 0 0 0
          0 0 0 0 0 0
          0 0 0 0 0 0
          0 0 0 0 0 0
          0 0 0 0 0 0
          0 0 0 0 0 0
          0 0 0 0 0 0
          0 0 0 0 0 0
          0 0 0 0 0 0
          0 0 0 0 0 0
          0 0 0 0 0 0
          0 0 0 0 0 0
          0 0 0 0 0 0
          0 0 0
        </DataArray>
        <DataArray type="Float64" Name="Dilatation" format="ascii" RangeMin="-0.0080560540271" RangeMax="0.003773839535">
          -0.0058477228464 -0.002655108889 -0.00084110851779 -0.002655108889 -0.0058477228464 -0.002655108889
          -0.0008480412134 -0.0015825952379 -0.0008480412134 -0.002655108889 -0.00084110851779 -0.0015825952379
          -0.0010557144097 -0.0015825952379 -0.00084110851779 -0.002655108889 -0.0008480412134 -0.0015825952379
          -0.0008480412134 -0.002655108889 -0.0058477228464 -0.002655108889 -0.00084110851779 -0.002655108889
          -0.0058477228464 -0.0070689550285 -0.0043926262354 -0.0019127715647 -0.0043926262354 -0.0070689550285
          -0.0043926262354 -0.0006163608371 -0.0025534196474 -0.0006163608371 -0.0043926262354 -0.0019127715647
          -0.0025534196474 -0.0026697468477 -0.0025534196474 -0.0019127715647 -0.0043926262354 -0.0006163608371
          -0.0025534196474 -0.0006163608371 -0.0043926262354 -0.0070689550285 -0.0043926262354 -0.0019127715647
          -0.0043926262354 -0.0070689550285 -0.0022069160874 -0.0032930613998 -0.0015291572987 -0.0032930613998
          -0.0022069160874 -0.0032930613998 -0.0012549250571 -0.0029007982376 -0.0012549250571 -0.0032930613998
          -0.0015291572987 -0.0029007982376 -0.0023449673262 -0.0029007982376 -0.0015291572987 -0.0032930613998
          -0.0012549250571 -0.0029007982376 -0.0012549250571 -0.0032930613998 -0.0022069160874 -0.0032930613998
          -0.0015291572987 -0.0032930613998 -0.0022069160874 -0.00092305206836 -0.00397975854 -0.00062787449559
          -0.00397975854 -0.00092305206836 -0.00397975854 -0.0047208400017 -0.0031692347506 -0.0047208400017
          -0.00397975854 -0.00062787449559 -0.0031692347506 -0.0015621049859 -0.0031692347506 -0.00062787449559
          -0.00397975854 -0.0047208400017 -0.0031692347506 -0.0047208400017 -0.00397975854 -0.00092305206836
          -0.00397975854 -0.00062787449559 -0.00397975854 -0.00092305206836 0.003773839535 -0.0023465405635
          -0.00084135001135 -0.0023465405635 0.003773839535 -0.0023465405635 -0.0056549888181 -0.002778713924
          -0.0056549888181 -0.0023465405635 -0.00084135001135 -0.002778713924 -0.00031581621191 -0.002778713924
          -0.00084135001135 -0.0023465405635 -0.0056549888181 -0.002778713924 -0.0056549888181 -0.0023465405635
          0.003773839535 -0.0023465405635 -0.00084135001135 -0.0023465405635 0.003773839535 0.00033104707556
          -0.0038118327379 -0.0028413804496 -0.0038118327379 0.00033104707556 -0.0038118327379 -0.0076923409278
          -0.003733173943 -0.0076923409278 -0.0038118327379 -0.0028413804496 -0.003733173943 -0.00079182325959
          -0.003733173943 -0.0028413804496 -0.0038118327379 -0.0076923409278 -0.003733173943 -0.0076923409278
          -0.0038118327379 0.00033104707556 -0.0038118327379 -0.0028413804496 -0.0038118327379 0.00033104707556
          -0.0013545047692 -0.0038336261825 -0.0039130838802 -0.0038336261825 -0.0013545047692 -0.0038336261825
          -0.0072402908316 -0.0042855982937 -0.0072402908316 -0.0038336261825 -0.0039130838802 -0.0042855982937
          -0.001904910766 -0.0042855982937 -0.0039130838802 -0.0038336261825 -0.0072402908316 -0.0042855982937
          -0.0072402908316 -0.0038336261825 -0.0013545047692 -0.0038336261825 -0.0039130838802 -0.0038336261825
          -0.0013545047692 -0.0027886575067 -0.002666711183 -0.0027571890154 -0.002666711183 -0.0027886575067
          -0.002666711183 -0.0057057234154 -0.0037680982414 -0.0057057234154 -0.002666711183 -0.0027571890154
          -0.0037680982414 -0.001958249607 -0.0037680982414 -0.0027571890154 -0.002666711183 -0.0057057234154
          -0.0037680982414 -0.0057057234154 -0.002666711183 -0.0027886575067 -0.002666711183 -0.0027571890154
          -0.002666711183 -0.0027886575067 -0.0025560436313 -0.0015414216816 -0.001455044936 -0.0015414216816
          -0.0025560436313 -0.0015414216816 -0.0037834343008 -0.0030906757709 -0.0037834343008 -0.0015414216816
          -0.001455044936 -0.0030906757709 -0.0017886630164 -0.0030906757709 -0.001455044936 -0.0015414216816
          -0.0037834343008 -0.0030906757709 -0.0037834343008 -0.0015414216816 -0.0025560436313 -0.0015414216816
          -0.001455044936 -0.0015414216816 -0.0025560436313 -0.0016933141991 -0.0012611589593 -0.00070837238937
          -0.0012611589593 -0.0016933141991 -0.0012611589593 -0.0032296272879 -0.0028406835032 -0.0032296272879
          -0.0012611589593 -0.00070837238937 -0.0028406835032 -0.0016077434442 -0.0028406835032 -0.00070837238937
          -0.0012611589593 -0.0032296272879 -0.0028406835032 -0.0032296272879 -0.0012611589593 -0.0016933141991
          -0.0012611589593 -0.00070837238937 -0.0012611589593 -0.0016933141991 -0.0015076705697 -0.002176709633
          -0.0011222120182 -0.002176709633 -0.0015076705697 -0.002176709633 -0.0036805612603 -0.0029990606433
          -0.0036805612603 -0.002176709633 -0.0011222120182 -0.0029990606433 -0.0016868435683 -0.0029990606433
          -0.0011222120182 -0.002176709633 -0.0036805612603 -0.0029990606433 -0.0036805612603 -0.002176709633
          -0.0015076705697 -0.002176709633 -0.0011222120182 -0.002176709633 -0.0015076705697 -0.00020458038933
          -0.0015187945783 -0.0006088451343 -0.0015187945783 -0.00020458038933 -0.0015187945783 -0.0024036341979
          -0.0017632540805 -0.0024036341979 -0.0015187945783 -0.0006088451343 -0.0017632540805 -0.00085048679988
          -0.0017632540805 -0.0006088451343 -0.0015187945783 -0.0024036341979 -0.0017632540805 -0.0024036341979
          -0.0015187945783 -0.00020458038933 -0.0015187945783 -0.0006088451343 -0.0015187945783 -0.00020458038933
          -0.00098815619179 -0.0016125860466 -0.00098560767932 -0.0016125860466 -0.00098815619179 -0.0016125860466
          -0.0011065112772 -0.00069368061073 -0.0011065112772 -0.0016125860466 -0.00098560767932 -0.00069368061073
          -0.00044248641026 -0.00069368061073 -0.00098560767932 -0.0016125860466 -0.0011065112772 -0.00069368061073
          -0.0011065112772 -0.0016125860466 -0.00098815619178 -0.0016125860466 -0.00098560767932 -0.0016125860466
          -0.00098815619179 -0.0014777633885 -0.0010744968209 -0.00097350192326 -0.0010744968209 -0.0014777633885
          -0.0010744968209 0.00076288304025 0.00058212901428 0.00076288304025 -0.0010744968209 -0.00097350192326
          0.00058212901428 -2.3369273275e-05 0.00058212901428 -0.00097350192326 -0.0010744968209 0.00076288304025
          0.00058212901428 0.00076288304025 -0.0010744968209 -0.0014777633885 -0.0010744968209 -0.00097350192326
          -0.0010744968209 -0.0014777633885 -0.001958966022 -0.00053508689133 -0.00073996681721 -0.00053508689133
          -0.001958966022 -0.00053508689133 0.0020738686051 0.0013960358619 0.0020738686051 -0.00053508689133
          -0.00073996681721 0.0013960358619 0.00017195542733 0.0013960358619 -0.00073996681721 -0.00053508689133
          0.0020738686051 0.0013960358619 0.0020738686051 -0.00053508689133 -0.001958966022 -0.00053508689133
          -0.00073996681721 -0.00053508689133 -0.001958966022 -0.0019072089696 -9.2437692924e-05 -0.00039688657498
          -9.2437692923e-05 -0.0019072089696 -9.2437692924e-05 0.0024245860494 0.0015654887418 0.0024245860494
          -9.2437692924e-05 -0.00039688657498 0.0015654887418 0.00021149462808 0.0015654887418 -0.00039688657498
          -9.2437692924e-05 0.0024245860494 0.0015654887418 0.0024245860494 -9.2437692924e-05 -0.0019072089696
          -9.2437692924e-05 -0.00039688657498 -9.2437692924e-05 -0.0019072089696 -0.00082497102462 0.0003913379603
          9.8533683942e-05 0.0003913379603 -0.00082497102462 0.0003913379603 0.0015924322952 0.00090399102977
          0.0015924322952 0.0003913379603 9.8533683942e-05 0.00090399102977 -7.5110058997e-05 0.00090399102977
          9.8533683942e-05 0.0003913379603 0.0015924322952 0.00090399102977 0.0015924322952 0.0003913379603
          -0.00082497102462 0.0003913379603 9.8533683942e-05 0.0003913379603 -0.00082497102462 7.5968374637e-05
          0.0014553524834 0.0021017119136 0.0014553524834 7.5968374635e-05 0.0014553524834 0.0026644117521
          0.0030826628318 0.0026644117521 0.0014553524834 0.0021017119136 0.0030826628318 0.00313642807
          0.0030826628318 0.0021017119136 0.0014553524834 0.0026644117521 0.0030826628318 0.0026644117521
          0.0014553524834 7.5968374637e-05 0.0014553524834 0.0021017119136 0.0014553524834 7.5968374636e-05
          -0.0080560540271 -0.0058466434286 -0.0057810017802 -0.0058466434286 -0.0080560540271 -0.0058466434286
          -0.0047880927282 -0.0038313931408 -0.0047880927282 -0.0058466434286 -0.0057810017802 -0.0038313931408
          -0.0039711966769 -0.0038313931408 -0.0057810017802 -0.0058466434286 -0.0047880927282 -0.0038313931408
          -0.0047880927282 -0.0058466434286 -0.0080560540271 -0.0058466434286 -0.0057810017802 -0.0058466434286
          -0.0080560540271 0.0013069177118 -0.0013973418441 -0.0035129446115 -0.0013973418441 0.0013069177118
          -0.0013973418441 -0.0037193859361 -0.0030488007332 -0.0037193859361 -0.0013973418441 -0.0035129446115
          -0.0030488007332 -0.0012467066997 -0.0030488007332 -0.0035129446115 -0.0013973418441 -0.0037193859361
          -0.0030488007332 -0.0037193859361 -0.0013973418441 0.0013069177118 -0.0013973418441 -0.0035129446115
          -0.0013973418441 0.0013069177118 0.0022195686627 -0.0026130722993 -0.0039297914553 -0.0026130722993
          0.0022195686627 -0.0026130722993 -0.0023536758262 -0.0010431629394 -0.0023536758262 -0.0026130722993
          -0.0039297914553 -0.0010431629394 -0.00065916461913 -0.0010431629394 -0.0039297914553 -0.0026130722993
          -0.0023536758262 -0.0010431629394 -0.0023536758262 -0.0026130722993 0.0022195686627 -0.0026130722993
          -0.0039297914553 -0.0026130722993 0.0022195686627
        </DataArray>
        <DataArray type="Float64" Name="Displacement" NumberOfComponents="3" format="ascii" RangeMin="0.00015797715926" RangeMax="0.00039979990717">
          -0.00018383686941 1.5462189893e-06 -1.5462189893e-06 -0.00018241386463 -3.7748122951e-06 -1.7752726025e-06
          -0.00018458004061 -7.562478236e-06 -2.9323904025e-19 -0.00018241386463 -3.7748122951e-06 1.7752726025e-06
          -0.00018383686941 1.5462189893e-06 1.5462189893e-06 -0.00018241386463 1.7752726025e-06 3.7748122951e-06
          -0.00019135682255 -5.7976158495e-06 5.7976158495e-06 -0.00019024689807 -3.9128624618e-07 -1.5003889368e-19
          -0.00019135682255 -5.7976158495e-06 -5.7976158495e-06 -0.00018241386463 1.7752726025e-06 -3.7748122951e-06
          -0.00018458004061 1.0986549583e-18 7.562478236e-06 -0.00019024689807 3.1309112753e-19 3.9128624618e-07
          -0.00019075150686 3.4395402705e-19 1.1009622434e-18 -0.00019024689807 -3.2662726929e-19 -3.9128624618e-07
          -0.00018458004061 -3.4130034743e-19 -7.562478236e-06 -0.00018241386463 -1.7752726025e-06 3.7748122951e-06
          -0.00019135682255 5.7976158495e-06 5.7976158495e-06 -0.00019024689807 3.9128624618e-07 -8.6119295883e-21
          -0.00019135682255 5.7976158495e-06 -5.7976158495e-06 -0.00018241386463 -1.7752726025e-06 -3.7748122951e-06
          -0.00018383686941 -1.5462189893e-06 -1.5462189893e-06 -0.00018241386463 3.7748122951e-06 -1.7752726025e-06
          -0.00018458004061 7.562478236e-06 1.339632353e-19 -0.00018241386463 3.7748122951e-06 1.7752726025e-06
          -0.00018383686941 -1.5462189893e-06 1.5462189893e-06 -0.00019654749471 -1.8290689942e-06 1.8290689942e-06
          -0.00018242323905 -7.0721082314e-06 -7.5006505432e-07 -0.00018129542413 -1.1905655855e-05 6.30387338e-20
          -0.00018242323905 -7.0721082314e-06 7.5006505432e-07 -0.00019654749471 -1.8290689942e-06 -1.8290689942e-06
          -0.00018242323905 7.5006505432e-07 7.0721082314e-06 -0.00019331483757 -1.417564414e-05 1.417564414e-05
          -0.00019120134856 -7.654856166e-06 1.0629909011e-19 -0.00019331483757 -1.417564414e-05 -1.417564414e-05
          -0.00018242323905 7.5006505432e-07 -7.0721082314e-06 -0.00018129542413 5.1089611518e-19 1.1905655855e-05
          -0.00019120134856 2.4977646508e-20 7.654856166e-06 -0.0001912799364 -2.6206202416e-19 4.4445342595e-19
          -0.00019120134856 -3.8687881501e-20 -7.654856166e-06 -0.00018129542413 1.1821015007e-19 -1.1905655855e-05
          -0.00018242323905 -7.5006505432e-07 7.0721082314e-06 -0.00019331483757 1.417564414e-05 1.417564414e-05
          -0.00019120134856 7.654856166e-06 4.5715653164e-19 -0.00019331483757 1.417564414e-05 -1.417564414e-05
          -0.00018242323905 -7.5006505432e-07 -7.0721082314e-06 -0.00019654749471 1.8290689942e-06 1.8290689942e-06
          -0.00018242323905 7.0721082314e-06 -7.5006505432e-07 -0.00018129542413 1.1905655855e-05 3.0292889627e-19
          -0.00018242323905 7.0721082314e-06 7.5006505432e-07 -0.00019654749471 1.8290689942e-06 -1.8290689942e-06
          -0.00022096657555 -1.4332212448e-05 1.4332212448e-05 -0.00021006263919 -1.3291069242e-05 2.1397924965e-06
          -0.00020916338495 -1.653926211e-05 3.1252953105e-20 -0.00021006263919 -1.3291069242e-05 -2.1397924965e-06
          -0.00022096657555 -1.4332212448e-05 -1.4332212448e-05 -0.00021006263919 -2.1397924965e-06 1.3291069242e-05
          -0.00022287608355 -1.438781845e-05 1.438781845e-05 -0.00021908514063 -7.3222979491e-06 1.3661707933e-19
          -0.00022287608355 -1.438781845e-05 -1.438781845e-05 -0.00021006263919 -2.1397924965e-06 -1.3291069242e-05
          -0.00020916338495 6.7115883306e-19 1.653926211e-05 -0.00021908514063 2.314548387e-19 7.3222979491e-06
          -0.00021374722439 -5.530492541e-20 -1.2037098874e-19 -0.00021908514063 -4.9825950504e-19 -7.3222979491e-06
          -0.00020916338495 4.108152507e-20 -1.653926211e-05 -0.00021006263919 2.1397924965e-06 1.3291069242e-05
          -0.00022287608355 1.438781845e-05 1.438781845e-05 -0.00021908514063 7.3222979491e-06 -2.684924966e-19
          -0.00022287608355 1.438781845e-05 -1.438781845e-05 -0.00021006263919 2.1397924965e-06 -1.3291069242e-05
          -0.00022096657555 1.4332212448e-05 1.4332212448e-05 -0.00021006263919 1.3291069242e-05 2.1397924965e-06
          -0.00020916338495 1.653926211e-05 -2.99149401e-20 -0.00021006263919 1.3291069242e-05 -2.1397924965e-06
          -0.00022096657555 1.4332212448e-05 -1.4332212448e-05 -0.00024326090041 -1.8217346269e-05 1.8217346269e-05
          -0.00023426324042 -1.4893407019e-05 -1.0125807442e-07 -0.00023751373939 -1.9857711545e-05 6.8829767012e-20
          -0.00023426324042 -1.4893407019e-05 1.0125807442e-07 -0.00024326090041 -1.8217346269e-05 -1.8217346269e-05
          -0.00023426324042 1.0125807442e-07 1.4893407019e-05 -0.00023642904963 -4.3562085323e-06 4.3562085323e-06
          -0.00023814003604 -4.0312127511e-06 9.1792256797e-20 -0.00023642904963 -4.3562085323e-06 -4.3562085323e-06
          -0.00023426324042 1.0125807442e-07 -1.4893407019e-05 -0.00023751373939 -2.6182464426e-19 1.9857711545e-05
          -0.00023814003604 -4.4688058524e-20 4.0312127511e-06 -0.00023216961595 1.7222823613e-19 1.7348547679e-19
          -0.00023814003604 3.7377410332e-19 -4.0312127511e-06 -0.00023751373939 9.991880399e-20 -1.9857711545e-05
          -0.00023426324042 -1.0125807442e-07 1.4893407019e-05 -0.00023642904963 4.3562085323e-06 4.3562085323e-06
          -0.00023814003604 4.0312127511e-06 5.1433191319e-19 -0.00023642904963 4.3562085323e-06 -4.3562085323e-06
          -0.00023426324042 -1.0125807442e-07 -1.4893407019e-05 -0.00024326090041 1.8217346269e-05 1.8217346269e-05
          -0.00023426324042 1.4893407019e-05 -1.0125807442e-07 -0.00023751373939 1.9857711545e-05 1.034224345e-19
          -0.00023426324042 1.4893407019e-05 1.0125807442e-07 -0.00024326090041 1.8217346269e-05 -1.8217346269e-05
          -0.00024436603767 -2.5366955001e-05 2.5366955001e-05 -0.00023122060288 -1.5358834252e-05 6.0984104122e-06
          -0.00023793444982 -1.5992490267e-05 -1.9794204288e-19 -0.00023122060288 -1.5358834252e-05 -6.0984104122e-06
          -0.00024436603767 -2.5366955001e-05 -2.5366955001e-05 -0.00023122060288 -6.0984104122e-06 1.5358834252e-05
          -0.00023605048789 1.2229347463e-06 -1.2229347463e-06 -0.00024073547608 5.39753851e-07 -2.9064403165e-19
          -0.00023605048789 1.2229347463e-06 1.2229347463e-06 -0.00023122060288 -6.0984104122e-06 -1.5358834252e-05
          -0.00023793444982 -8.2507453555e-21 1.5992490267e-05 -0.00024073547608 2.0207321157e-19 -5.39753851e-07
          -0.00023169662361 -2.3875068144e-19 -3.3329998232e-19 -0.00024073547608 2.0137179442e-19 5.39753851e-07
          -0.00023793444982 -4.8078822758e-19 -1.5992490267e-05 -0.00023122060288 6.0984104122e-06 1.5358834252e-05
          -0.00023605048789 -1.2229347463e-06 -1.2229347463e-06 -0.00024073547608 -5.39753851e-07 3.7659810364e-19
          -0.00023605048789 -1.2229347463e-06 1.2229347463e-06 -0.00023122060288 6.0984104122e-06 -1.5358834252e-05
          -0.00024436603767 2.5366955001e-05 2.5366955001e-05 -0.00023122060288 1.5358834252e-05 6.0984104122e-06
          -0.00023793444982 1.5992490267e-05 -4.3263446079e-19 -0.00023122060288 1.5358834252e-05 -6.0984104122e-06
          -0.00024436603767 2.5366955001e-05 -2.5366955001e-05 -0.00027159585894 -2.0496009638e-05 2.0496009638e-05
          -0.00025420809357 -1.3748964311e-05 6.6500618927e-06 -0.00026046113458 -1.2064448999e-05 1.607983128e-19
          -0.00025420809357 -1.3748964311e-05 -6.6500618927e-06 -0.00027159585894 -2.0496009638e-05 -2.0496009638e-05
          -0.00025420809357 -6.6500618927e-06 1.3748964311e-05 -0.00025160394696 5.0136766927e-06 -5.0136766927e-06
          -0.00025635211486 2.1834539535e-06 -6.4913008144e-20 -0.00025160394696 5.0136766927e-06 5.0136766927e-06
          -0.00025420809357 -6.6500618927e-06 -1.3748964311e-05 -0.00026046113458 -5.5471751249e-19 1.2064448999e-05
          -0.00025635211486 -4.9516027269e-19 -2.1834539535e-06 -0.00025299538995 -2.4559949884e-19 -1.390655106e-19
          -0.00025635211486 4.8155469578e-20 2.1834539535e-06 -0.00026046113458 -4.3318156997e-19 -1.2064448999e-05
          -0.00025420809357 6.6500618927e-06 1.3748964311e-05 -0.00025160394696 -5.0136766927e-06 -5.0136766927e-06
          -0.00025635211486 -2.1834539535e-06 -4.7014857375e-19 -0.00025160394696 -5.0136766927e-06 5.0136766927e-06
          -0.00025420809357 6.6500618927e-06 -1.3748964311e-05 -0.00027159585894 2.0496009638e-05 2.0496009638e-05
          -0.00025420809357 1.3748964311e-05 6.6500618927e-06 -0.00026046113458 1.2064448999e-05 -3.6292974107e-19
          -0.00025420809357 1.3748964311e-05 -6.6500618927e-06 -0.00027159585894 2.0496009638e-05 -2.0496009638e-05
          -0.00029157863196 -2.1120385436e-05 2.1120385436e-05 -0.00027477447176 -1.8175534045e-05 1.1363148973e-05
          -0.0002776014249 -1.3739792327e-05 -4.2177439508e-19 -0.00027477447176 -1.8175534045e-05 -1.1363148973e-05
          -0.00029157863196 -2.1120385436e-05 -2.1120385436e-05 -0.00027477447176 -1.1363148973e-05 1.8175534045e-05
          -0.00027302376764 -2.0239135324e-06 2.0239135324e-06 -0.00027562633018 -2.8001939176e-06 -4.6294606585e-19
          -0.00027302376764 -2.0239135324e-06 -2.0239135324e-06 -0.00027477447176 -1.1363148973e-05 -1.8175534045e-05
          -0.0002776014249 -9.4225794519e-20 1.3739792327e-05 -0.00027562633018 -3.444888805e-19 2.8001939176e-06
          -0.00027210382074 -4.2737476035e-19 -2.4323593939e-19 -0.00027562633018 -1.6891520336e-19 -2.8001939176e-06
          -0.0002776014249 -3.6584193405e-19 -1.3739792327e-05 -0.00027477447176 1.1363148973e-05 1.8175534045e-05
          -0.00027302376764 2.0239135324e-06 2.0239135324e-06 -0.00027562633018 2.8001939176e-06 1.0517450724e-19
          -0.00027302376764 2.0239135324e-06 -2.0239135324e-06 -0.00027477447176 1.1363148973e-05 -1.8175534045e-05
          -0.00029157863196 2.1120385436e-05 2.1120385436e-05 -0.00027477447176 1.8175534045e-05 1.1363148973e-05
          -0.0002776014249 1.3739792327e-05 -2.4235179129e-19 -0.00027477447176 1.8175534045e-05 -1.1363148973e-05
          -0.00029157863196 2.1120385436e-05 -2.1120385436e-05 -0.00031407809079 -2.116208699e-05 2.116208699e-05
          -0.00029937677298 -2.6094443314e-05 1.2171240089e-05 -0.00029858951805 -2.0913637428e-05 -1.5665215032e-19
          -0.00029937677298 -2.6094443314e-05 -1.2171240089e-05 -0.00031407809079 -2.116208699e-05 -2.116208699e-05
          -0.00029937677298 -1.2171240089e-05 2.6094443314e-05 -0.00029533055838 -8.828400481e-06 8.828400481e-06
          -0.00029650518907 -8.0142672579e-06 -2.0752426808e-19 -0.00029533055838 -8.828400481e-06 -8.828400481e-06
          -0.00029937677298 -1.2171240089e-05 -2.6094443314e-05 -0.00029858951805 -4.2899904076e-19 2.0913637428e-05
          -0.00029650518907 -3.3814933436e-19 8.0142672579e-06 -0.00029600941941 -3.9743710009e-19 -6.1865209849e-20
          -0.00029650518907 4.2386649063e-19 -8.0142672579e-06 -0.00029858951805 2.1945532184e-19 -2.0913637428e-05
          -0.00029937677298 1.2171240089e-05 2.6094443314e-05 -0.00029533055838 8.828400481e-06 8.828400481e-06
          -0.00029650518907 8.0142672579e-06 -3.8622000996e-19 -0.00029533055838 8.828400481e-06 -8.828400481e-06
          -0.00029937677298 1.2171240089e-05 -2.6094443314e-05 -0.00031407809079 2.116208699e-05 2.116208699e-05
          -0.00029937677298 2.6094443314e-05 1.2171240089e-05 -0.00029858951805 2.0913637428e-05 -1.1361099745e-19
          -0.00029937677298 2.6094443314e-05 -1.2171240089e-05 -0.00031407809079 2.116208699e-05 -2.116208699e-05
          -0.00032891174136 -2.2407741533e-05 2.2407741533e-05 -0.00031978893869 -3.0986269581e-05 1.2263891251e-05
          -0.00031775215767 -2.6036996402e-05 1.1989205292e-19 -0.00031978893869 -3.0986269581e-05 -1.2263891251e-05
          -0.00032891174136 -2.2407741533e-05 -2.2407741533e-05 -0.00031978893869 -1.2263891251e-05 3.0986269581e-05
          -0.00031551509204 -1.5434225165e-05 1.5434225165e-05 -0.00031584112832 -1.2338130005e-05 -7.7682013577e-20
          -0.00031551509204 -1.5434225165e-05 -1.5434225165e-05 -0.00031978893869 -1.2263891251e-05 -3.0986269581e-05
          -0.00031775215767 -2.3415487923e-19 2.6036996402e-05 -0.00031584112832 -1.6266279175e-19 1.2338130005e-05
          -0.00031679579161 1.1765181001e-19 -5.9461103122e-20 -0.00031584112832 2.1784784372e-19 -1.2338130005e-05
          -0.00031775215767 3.2559517134e-19 -2.6036996402e-05 -0.00031978893869 1.2263891251e-05 3.0986269581e-05
          -0.00031551509204 1.5434225165e-05 1.5434225165e-05 -0.00031584112832 1.2338130005e-05 -4.6936965919e-19
          -0.00031551509204 1.5434225165e-05 -1.5434225165e-05 -0.00031978893869 1.2263891251e-05 -3.0986269581e-05
          -0.00032891174136 2.2407741533e-05 2.2407741533e-05 -0.00031978893869 3.0986269581e-05 1.2263891251e-05
          -0.00031775215767 2.6036996402e-05 -5.9373998349e-19 -0.00031978893869 3.0986269581e-05 -1.2263891251e-05
          -0.00032891174136 2.2407741533e-05 -2.2407741533e-05 -0.00034637258525 -2.1652902636e-05 2.1652902636e-05
          -0.00034832399572 -2.9737286667e-05 9.078667129e-06 -0.0003474445383 -2.5991753149e-05 2.0886991883e-19
          -0.00034832399572 -2.9737286667e-05 -9.078667129e-06 -0.00034637258525 -2.1652902636e-05 -2.1652902636e-05
          -0.00034832399572 -9.078667129e-06 2.9737286667e-05 -0.00035102980805 -1.4844748789e-05 1.4844748789e-05
          -0.00035238004735 -1.1222945456e-05 6.3242454553e-20 -0.00035102980805 -1.4844748789e-05 -1.4844748789e-05
          -0.00034832399572 -9.078667129e-06 -2.9737286667e-05 -0.0003474445383 1.8420369291e-19 2.5991753149e-05
          -0.00035238004735 -2.4946300684e-19 1.1222945456e-05 -0.00035558446088 -1.6121288388e-19 1.0105736117e-20
          -0.00035238004735 4.0188648485e-19 -1.1222945456e-05 -0.0003474445383 3.4466515024e-19 -2.5991753149e-05
          -0.00034832399572 9.078667129e-06 2.9737286667e-05 -0.00035102980805 1.4844748789e-05 1.4844748789e-05
          -0.00035238004735 1.1222945456e-05 -3.4674958888e-19 -0.00035102980805 1.4844748789e-05 -1.4844748789e-05
          -0.00034832399572 9.078667129e-06 -2.9737286667e-05 -0.00034637258525 2.1652902636e-05 2.1652902636e-05
          -0.00034832399572 2.9737286667e-05 9.078667129e-06 -0.0003474445383 2.5991753149e-05 6.4630830117e-20
          -0.00034832399572 2.9737286667e-05 -9.078667129e-06 -0.00034637258525 2.1652902636e-05 -2.1652902636e-05
          -0.0003591946768 -1.5935074916e-05 1.5935074916e-05 -0.00036755016978 -2.0114629627e-05 4.2924614398e-06
          -0.00036960351504 -1.850084674e-05 4.7374540491e-20 -0.00036755016978 -2.0114629627e-05 -4.2924614398e-06
          -0.0003591946768 -1.5935074916e-05 -1.5935074916e-05 -0.00036755016978 -4.2924614398e-06 2.0114629627e-05
          -0.00037182937068 -8.7458316607e-06 8.7458316607e-06 -0.00037522849495 -6.1068609156e-06 3.6973742102e-19
          -0.00037182937068 -8.7458316607e-06 -8.7458316607e-06 -0.00036755016978 -4.2924614398e-06 -2.0114629627e-05
          -0.00036960351504 -8.1309416897e-20 1.850084674e-05 -0.00037522849495 7.1331228369e-19 6.1068609156e-06
          -0.00037999076826 1.0136375057e-18 3.3702245662e-20 -0.00037522849495 1.3796334626e-19 -6.1068609156e-06
          -0.00036960351504 -3.9586159093e-19 -1.850084674e-05 -0.00036755016978 4.2924614398e-06 2.0114629627e-05
          -0.00037182937068 8.7458316607e-06 8.7458316607e-06 -0.00037522849495 6.1068609156e-06 -3.4041001775e-19
          -0.00037182937068 8.7458316607e-06 -8.7458316607e-06 -0.00036755016978 4.2924614398e-06 -2.0114629627e-05
          -0.0003591946768 1.5935074916e-05 1.5935074916e-05 -0.00036755016978 2.0114629627e-05 4.2924614398e-06
          -0.00036960351504 1.850084674e-05 -7.2350383943e-21 -0.00036755016978 2.0114629627e-05 -4.2924614398e-06
          -0.0003591946768 1.5935074916e-05 -1.5935074916e-05 -0.00036604007899 -7.5678078925e-06 7.5678078925e-06
          -0.00037673046705 -7.293959244e-06 1.8353819653e-07 -0.00038147465938 -7.649518809e-06 -3.912216659e-19
          -0.00037673046705 -7.293959244e-06 -1.8353819653e-07 -0.00036604007899 -7.5678078925e-06 -7.5678078925e-06
          -0.00037673046705 -1.8353819653e-07 7.293959244e-06 -0.00038451778764 -1.381586005e-06 1.381586005e-06
          -0.00038984677512 -2.6186405607e-07 2.7240313834e-19 -0.00038451778764 -1.381586005e-06 -1.381586005e-06
          -0.00037673046705 -1.8353819653e-07 -7.293959244e-06 -0.00038147465938 3.8387044572e-20 7.649518809e-06
          -0.00038984677512 -4.6637332002e-20 2.6186405607e-07 -0.00039530768378 -1.094492668e-19 4.3277918975e-20
          -0.00038984677512 -2.1357031469e-19 -2.6186405607e-07 -0.00038147465938 4.4454717421e-19 -7.649518809e-06
          -0.00037673046705 1.8353819653e-07 7.293959244e-06 -0.00038451778764 1.381586005e-06 1.381586005e-06
          -0.00038984677512 2.6186405607e-07 -1.1015717586e-19 -0.00038451778764 1.381586005e-06 -1.381586005e-06
          -0.00037673046705 1.8353819653e-07 -7.293959244e-06 -0.00036604007899 7.5678078925e-06 7.5678078925e-06
          -0.00037673046705 7.293959244e-06 1.8353819653e-07 -0.00038147465938 7.649518809e-06 -3.7886269088e-19
          -0.00037673046705 7.293959244e-06 -1.8353819653e-07 -0.00036604007899 7.5678078925e-06 -7.5678078925e-06
          -0.00037218623529 4.5532976539e-06 -4.5532976539e-06 -0.00038081034412 7.7421942154e-06 -3.7412519224e-06
          -0.00038626078845 5.6684850146e-06 1.7505380228e-20 -0.00038081034412 7.7421942154e-06 3.7412519224e-06
          -0.00037218623529 4.5532976539e-06 4.5532976539e-06 -0.00038081034412 3.7412519224e-06 -7.7421942154e-06