<?xml version="1.0"?>
<VTKFile type="UnstructuredGrid" version="0.1" byte_order="LittleEndian" compressor="vtkZLibDataCompressor">
  <UnstructuredGrid>
    <Piece NumberOfPoints="525" NumberOfCells="525">
      <PointData>
        <DataArray type="Float64" Name="Damage" format="ascii" RangeMin="0" RangeMax="0">
          0 0 0 0 0 0
          0 0 0 0 0 0
          0 0 0 0 0 0
          0 0 0 0 0 0
          0 0 0 0 0 0
          0 0 0 0 0 0
          0 0 0 0 0 0
          0 0 0 0 0 0
          0 0 0 0 0 0
          0 0 0 0 0 0
          0 0 0 0 0 0
          0 0 0 0 0 0
          0 0 0 0 0 0
          0 0 0 0 0 0
          0 0 0 0 0 0
          0 0 0 0 0 0
          0 0 0 0 0 0
          0 0 0 0 0 0
          0 0 0 0 0 0
          0 0 0 0 0 0
          0 0 0 0 0 0
          0 0 0 0 0 0
          0 0 0 0 0 0
          0 0 0 0 0 0
          0 0 0 0 0 0
          0 0 0 0 0 0
          0 0 0 0 0 0
          0 0 0 0 0 0
          0 0 0 0 0 0
          0 0 0 0 0 0
          0 0 0 0 0 0
          0 0 0 0 0 0
          0 0 0 0 0 0
          0 0 0 0 0 0
          0 0 0 0 0 0
          0 0 0 0 0 0
          0 0 0 0 0 0
          0 0 0 0 0 0
          0 0 0 0 0 0
          0 0 0 0 0 0
          0 0 0 0 0 0
          0 0 0 0 0 0
          0 0 0 0 0 0
          0 0 0 0 0 0
          0 0 0 0 0 0
          0 0 0 0 0 0
          0 0 0 0 0 0
          0 0 0 0 0 0
          0 0 0 0 0 0
          0 0 0 0 0 0
          0 0 0 0 0 0
          0 0 0 0 0 0
          0 0 0 0 0 0
          0 0 0 0 0 0
          0 0 0 0 0 0
          0 0 0 0 0 0
          0 0 0 0 0 0
          0 0 0 0 0 0
          0 0 0 0 0 0
          0 0 0 0 0 0
          0 0 0 0 0 0
          0 0 0 0 0 0
          0 0 0 0 0 0
          0 0 0 0 0 0
          0 0 0 0 0 0
          0 0 0 0 0 0
          0 0 0 0 0 0
          0 0 0 0 0 0
          0 0 0 0 0 0
          0 0 0 0 0 0
          0 0 0 0 0 0
          0 0 0 0 0 0
          0 0 0 0 0 0
          0 0 0 0 0 0
          0 0 0 0 0 0
          0 0 0 0 0 0
          0 0 0 0 0 0
          0 0 0 0 0 0
          0 0 0 0 0 0
          0 0 0 0 0 0
          0 0 0 0 0 0
          0 0 0 0 0 0
          0 0 0 0 0 0
          0 0 0 0 0 0
          0 0 0 0 0 0
          0 0 0 0 0 0
          0 0 0 0 0 0
          0 0 0
        </DataArray>
        <DataArray type="Float64" Name="Dilatation" format="ascii" RangeMin="-0.0089663316296" RangeMax="0.0060893425892">
          -0.0011250061754 0.0024191884111 0.001136543005 0.0024191884111 -0.0011250061754 0.0024191884111
          0.0046207890468 0.0026862985186 0.0046207890468 0.0024191884111 0.001136543005 0.0026862985186
          0.0014440272316 0.0026862985186 0.001136543005 0.0024191884111 0.0046207890468 0.0026862985186
          0.0046207890468 0.0024191884111 -0.0011250061754 0.0024191884111 0.001136543005 0.0024191884111
          -0.0011250061754 -0.0002207819874 -0.00056431099155 0.00054533129657 -0.00056431099155 -0.0002207819874
          -0.00056431099155 0.0010109864521 0.0013059362183 0.0010109864521 -0.00056431099155 0.00054533129657
          0.0013059362183 0.001700468498 0.0013059362183 0.00054533129657 -0.00056431099155 0.0010109864521
          0.0013059362183 0.0010109864521 -0.00056431099155 -0.0002207819874 -0.00056431099155 0.00054533129657
          -0.00056431099155 -0.0002207819874 0.0040986846704 -0.00066088797792 0.0007400378947 -0.00066088797792
          0.0040986846704 -0.00066088797792 -0.0012643615976 -0.00021960799208 -0.0012643615976 -0.00066088797792
          0.0007400378947 -0.00021960799208 0.0016472891309 -0.00021960799208 0.0007400378947 -0.00066088797792
          -0.0012643615976 -0.00021960799208 -0.0012643615976 -0.00066088797792 0.0040986846704 -0.00066088797792
          0.0007400378947 -0.00066088797792 0.0040986846704 0.0048942953378 0.00045703437718 0.0020222269744
          0.00045703437718 0.0048942953378 0.00045703437718 -0.0013914948541 0.00015511493052 -0.0013914948541
          0.00045703437718 0.0020222269744 0.00015511493052 0.0018594238457 0.00015511493052 0.0020222269744
          0.00045703437718 -0.0013914948541 0.00015511493052 -0.0013914948541 0.00045703437718 0.0048942953378
          0.00045703437718 0.0020222269744 0.00045703437718 0.0048942953378 0.0051897010557 0.0020282532101
          0.0025122592025 0.0020282532101 0.0051897010557 0.0020282532101 -0.00028823269435 0.00069570696765
          -0.00028823269435 0.0020282532101 0.0025122592025 0.00069570696765 0.0016474913107 0.00069570696765
          0.0025122592025 0.0020282532101 -0.00028823269435 0.00069570696765 -0.00028823269435 0.0020282532101
          0.0051897010557 0.0020282532101 0.0025122592025 0.0020282532101 0.0051897010557 0.001728161041
          0.0010907748935 0.0011195322957 0.0010907748935 0.001728161041 0.0010907748935 -0.00074352368244
          -3.7132093187e-05 -0.00074352368244 0.0010907748935 0.0011195322957 -3.7132093187e-05 0.00055345078715
          -3.7132093187e-05 0.0011195322957 0.0010907748935 -0.00074352368244 -3.7132093187e-05 -0.00074352368244
          0.0010907748935 0.001728161041 0.0010907748935 0.0011195322957 0.0010907748935 0.001728161041
          -0.00013290800625 0.0003652896265 -0.00017646146445 0.0003652896265 -0.00013290800625 0.0003652896265
          -0.00078486054087 -0.00060088020753 -0.00078486054087 0.0003652896265 -0.00017646146445 -0.00060088020753
          -0.00053357709691 -0.00060088020753 -0.00017646146445 0.0003652896265 -0.00078486054087 -0.00060088020753
          -0.00078486054087 0.0003652896265 -0.00013290800625 0.0003652896265 -0.00017646146445 0.0003652896265
          -0.00013290800625 -0.00021003553644 0.00071120693672 0.00016139795233 0.00071120693672 -0.00021003553644
          0.00071120693672 0.00011274673739 0.00013590122406 0.00011274673739 0.00071120693672 0.00016139795233
          0.00013590122406 6.2610071218e-05 0.00013590122406 0.00016139795233 0.00071120693672 0.00011274673739
          0.00013590122406 0.00011274673739 0.00071120693672 -0.00021003553644 0.00071120693672 0.00016139795233
          0.00071120693672 -0.00021003553644 0.00051408765155 0.00096085007957 0.00061943392223 0.00096085007957
          0.00051408765155 0.00096085007957 0.00080355716107 0.00078623539037 0.00080355716107 0.00096085007957
          0.00061943392223 0.00078623539037 0.00071704471818 0.00078623539037 0.00061943392223 0.00096085007957
          0.00080355716107 0.00078623539037 0.00080355716107 0.00096085007957 0.00051408765155 0.00096085007957
          0.00061943392223 0.00096085007957 0.00051408765155 0.0027776557583 0.0026325570431 0.0022857670945
          0.0026325570431 0.0027776557583 0.0026325570431 0.0027032993771 0.0023537509161 0.0027032993771
          0.0026325570431 0.0022857670945 0.0023537509161 0.0020059709889 0.0023537509161 0.0022857670945
          0.0026325570431 0.0027032993771 0.0023537509161 0.0027032993771 0.0026325570431 0.0027776557583
          0.0026325570431 0.0022857670945 0.0026325570431 0.0027776557583 0.0037315535774 0.0036088337105
          0.0032617366508 0.0036088337105 0.0037315535774 0.0036088337105 0.0043373058645 0.0036309640922
          0.0043373058645 0.0036088337105 0.0032617366508 0.0036309640922 0.0028702542623 0.0036309640922
          0.0032617366508 0.0036088337105 0.0043373058645 0.0036309640922 0.0043373058645 0.0036088337105
          0.0037315535774 0.0036088337105 0.0032617366508 0.0036088337105 0.0037315535774 0.0035383579417
          0.0038240683517 0.0034275527091 0.0038240683517 0.0035383579417 0.0038240683517 0.0053338343936
          0.0042803100508 0.0053338343936 0.0038240683517 0.0034275527091 0.0042803100508 0.0030404181428
          0.0042803100508 0.0034275527091 0.0038240683517 0.0053338343936 0.0042803100508 0.0053338343936
          0.0038240683517 0.0035383579417 0.0038240683517 0.0034275527091 0.0038240683517 0.0035383579417
          0.0029574723008 0.0038175914822 0.0033478239216 0.0038175914822 0.0029574723008 0.0038175914822
          0.0059997426033 0.0046852965995 0.0059997426033 0.0038175914822 0.0033478239216 0.0046852965995
          0.0030513787866 0.0046852965995 0.0033478239216 0.0038175914822 0.0059997426033 0.0046852965995
          0.0059997426033 0.0038175914822 0.0029574723008 0.0038175914822 0.0033478239216 0.0038175914822
          0.0029574723008 0.0023919600573 0.0036178642323 0.0030948796192 0.0036178642323 0.0023919600573
          0.0036178642323 0.0060893425892 0.0046900217979 0.0060893425892 0.0036178642323 0.0030948796192
          0.0046900217979 0.0029112616622 0.0046900217979 0.0030948796192 0.0036178642323 0.0060893425892
          0.0046900217979 0.0060893425892 0.0036178642323 0.0023919600573 0.0036178642323 0.0030948796192
          0.0036178642323 0.0023919600573 0.0020071401913 0.0031682926358 0.0026272216675 0.0031682926358
          0.0020071401913 0.0031682926358 0.0053589600753 0.0040581475766 0.0053589600753 0.0031682926358
          0.0026272216675 0.0040581475766 0.002388724207 0.0040581475766 0.0026272216675 0.0031682926358
          0.0053589600753 0.0040581475766 0.0053589600753 0.0031682926358 0.0020071401913 0.0031682926358
          0.0026272216675 0.0031682926358 0.0020071401913 0.0016832351151 0.0027200235686 0.0022552802228
          0.0027200235686 0.0016832351151 0.0027200235686 0.0044212979429 0.0033102143084 0.0044212979429
          0.0027200235686 0.0022552802228 0.0033102143084 0.0019193795358 0.0033102143084 0.0022552802228
          0.0027200235686 0.0044212979429 0.0033102143084 0.0044212979429 0.0027200235686 0.0016832351151
          0.0027200235686 0.0022552802228 0.0027200235686 0.0016832351151 0.0017068353243 0.0022248263944
          0.0018610253083 0.0022248263944 0.0017068353243 0.0022248263944 0.002794518533 0.0020056104382
          0.002794518533 0.0022248263944 0.0018610253083 0.0020056104382 0.0010300921229 0.0020056104382
          0.0018610253083 0.0022248263944 0.002794518533 0.0020056104382 0.002794518533 0.0022248263944
          0.0017068353243 0.0022248263944 0.0018610253083 0.0022248263944 0.0017068353243 0.0022074979857
          0.002599937037 0.0026765469908 0.002599937037 0.0022074979857 0.002599937037 0.0030448427068
          0.0030501045254 0.0030448427068 0.002599937037 0.0026765469908 0.0030501045254 0.0029244662986
          0.0030501045254 0.0026765469908 0.002599937037 0.0030448427068 0.0030501045254 0.0030448427068
          0.002599937037 0.0022074979857 0.002599937037 0.0026765469908 0.002599937037 0.0022074979857
          -0.0089663316296 -0.0061360225728 -0.0048624713845 -0.0061360225728 -0.0089663316296 -0.0061360225728
          -0.0037060073088 -0.0043520653342 -0.0037060073088 -0.0061360225728 -0.0048624713845 -0.0043520653342
          -0.0063730719802 -0.0043520653342 -0.0048624713845 -0.0061360225728 -0.0037060073088 -0.0043520653342
          -0.0037060073088 -0.0061360225728 -0.0089663316296 -0.0061360225728 -0.0048624713845 -0.0061360225728
          -0.0089663316296 0.00051529365162 0.0011296748395 -0.0021174050617 0.0011296748395 0.00051529365162
          0.0011296748395 0.0050470131257 0.0035943126262 0.0050470131257 0.0011296748395 -0.0021174050617
          0.0035943126262 0.0041948204281 0.0035943126262 -0.0021174050617 0.0011296748395 0.0050470131257
          0.0035943126262 0.0050470131257 0.0011296748395 0.00051529365162 0.0011296748395 -0.0021174050617
          0.0011296748395 0.00051529365162 0.0037709533217 0.0045451628292 0.00077564459222 0.0045451628292
          0.0037709533217 0.0045451628292 0.0048509854802 0.0026677095335 0.0048509854802 0.0045451628292
          0.00077564459222 0.0026677095335 0.00045853733055 0.0026677095335 0.00077564459222 0.0045451628292
          0.0048509854802 0.0026677095335 0.0048509854802 0.0045451628292 0.0037709533217 0.0045451628292
          0.00077564459222 0.0045451628292 0.0037709533217
        </DataArray>
        <DataArray type="Float64" Name="Displacement" NumberOfComponents="3" format="ascii" RangeMin="5.7407377238e-05" RangeMax="0.00020510863047">
          -0.00017045865116 5.0463201081e-06 -5.0463201081e-06 -0.00017413027336 -8.2202666681e-07 1.8211712044e-06
          -0.00017517021273 2.5225226123e-06 -1.1525477694e-19 -0.00017413027336 -8.2202666681e-07 -1.8211712044e-06
          -0.00017045865116 5.0463201081e-06 5.0463201081e-06 -0.00017413027336 -1.8211712044e-06 8.2202666681e-07
          -0.00017166769675 -7.7194614903e-06 7.7194614903e-06 -0.00017089185941 -5.1996605526e-06 -1.194024935e-19
          -0.00017166769675 -7.7194614903e-06 -7.7194614903e-06 -0.00017413027336 -1.8211712044e-06 -8.2202666681e-07
          -0.00017517021273 5.734877876e-20 -2.5225226123e-06 -0.00017089185941 1.635314669e-19 5.1996605526e-06
          -0.00017092774151 -7.9427429932e-20 -4.1095566232e-19 -0.00017089185941 -7.4222148142e-20 -5.1996605526e-06
          -0.00017517021273 1.6678128605e-20 2.5225226123e-06 -0.00017413027336 1.8211712044e-06 8.2202666681e-07
          -0.00017166769675 7.7194614903e-06 7.7194614903e-06 -0.00017089185941 5.1996605526e-06 -4.5234257341e-19
          -0.00017166769675 7.7194614903e-06 -7.7194614903e-06 -0.00017413027336 1.8211712044e-06 -8.2202666681e-07
          -0.00017045865116 -5.0463201081e-06 -5.0463201081e-06 -0.00017413027336 8.2202666681e-07 1.8211712044e-06
          -0.00017517021273 -2.5225226123e-06 -2.777950648e-19 -0.00017413027336 8.2202666681e-07 -1.8211712044e-06
          -0.00017045865116 -5.0463201081e-06 5.0463201081e-06 -0.00016200837005 4.2139964638e-06 -4.2139964638e-06
          -0.00017006482878 6.8170627786e-06 -5.7929998675e-06 -0.00017493730461 5.7266592931e-06 -7.8194191851e-20
          -0.00017006482878 6.8170627786e-06 5.7929998675e-06 -0.00016200837005 4.2139964638e-06 4.2139964638e-06
          -0.00017006482878 5.7929998675e-06 -6.8170627786e-06 -0.00018132689925 3.6119887462e-06 -3.6119887462e-06
          -0.00018572666142 4.8469515607e-06 8.0683325602e-20 -0.00018132689925 3.6119887462e-06 3.6119887462e-06
          -0.00017006482878 5.7929998675e-06 6.8170627786e-06 -0.00017493730461 8.898765198e-20 -5.7266592931e-06
          -0.00018572666142 2.7109824424e-19 -4.8469515607e-06 -0.00018749888893 1.9146192226e-20 -3.0981877083e-20
          -0.00018572666142 -2.7512906129e-19 4.8469515607e-06 -0.00017493730461 -1.8092563377e-19 5.7266592931e-06
          -0.00017006482878 -5.7929998675e-06 -6.8170627786e-06 -0.00018132689925 -3.6119887462e-06 -3.6119887462e-06
          -0.00018572666142 -4.8469515607e-06 -2.7495334667e-19 -0.00018132689925 -3.6119887462e-06 3.6119887462e-06
          -0.00017006482878 -5.7929998675e-06 6.8170627786e-06 -0.00016200837005 -4.2139964638e-06 -4.2139964638e-06
          -0.00017006482878 -6.8170627786e-06 -5.7929998675e-06 -0.00017493730461 -5.7266592931e-06 -3.3786534285e-19
          -0.00017006482878 -6.8170627786e-06 5.7929998675e-06 -0.00016200837005 -4.2139964638e-06 4.2139964638e-06
          -0.00015478477954 -3.4203282664e-06 3.4203282664e-06 -0.00016247821035 7.1162482494e-06 -6.2707492484e-06
          -0.0001658183831 4.7914933616e-06 2.5004822561e-19 -0.00016247821035 7.1162482494e-06 6.2707492484e-06
          -0.00015478477954 -3.4203282664e-06 -3.4203282664e-06 -0.00016247821035 6.2707492484e-06 -7.1162482494e-06
          -0.00018141990453 9.6547380236e-06 -9.6547380236e-06 -0.00018542997298 1.3159025554e-05 -6.9601657472e-20
          -0.00018141990453 9.6547380236e-06 9.6547380236e-06 -0.00016247821035 6.2707492484e-06 7.1162482494e-06
          -0.0001658183831 -2.2658459148e-19 -4.7914933616e-06 -0.00018542997298 1.1326550593e-19 -1.3159025554e-05
          -0.00018934569414 -3.6698877762e-19 1.5625492861e-19 -0.00018542997298 -1.873772405e-19 1.3159025554e-05
          -0.0001658183831 2.9398086237e-20 4.7914933616e-06 -0.00016247821035 -6.2707492484e-06 -7.1162482494e-06
          -0.00018141990453 -9.6547380236e-06 -9.6547380236e-06 -0.00018542997298 -1.3159025554e-05 6.0077883436e-20
          -0.00018141990453 -9.6547380236e-06 9.6547380236e-06 -0.00016247821035 -6.2707492484e-06 7.1162482494e-06
          -0.00015478477954 3.4203282664e-06 3.4203282664e-06 -0.00016247821035 -7.1162482494e-06 -6.2707492484e-06
          -0.0001658183831 -4.7914933616e-06 -2.6222794713e-19 -0.00016247821035 -7.1162482494e-06 6.2707492484e-06
          -0.00015478477954 3.4203282664e-06 -3.4203282664e-06 -0.00015555974908 -6.6805966068e-06 6.6805966068e-06
          -0.00015905851117 1.7332065874e-06 -4.8251483649e-06 -0.00016307216754 -1.5824945917e-06 8.4378234851e-20
          -0.00015905851117 1.7332065874e-06 4.8251483649e-06 -0.00015555974908 -6.6805966068e-06 -6.6805966068e-06
          -0.00015905851117 4.8251483649e-06 -1.7332065874e-06 -0.00016690919319 9.0925406427e-06 -9.0925406427e-06
          -0.00017103277526 9.7163750511e-06 1.297040326e-19 -0.00016690919319 9.0925406427e-06 9.0925406427e-06
          -0.00015905851117 4.8251483649e-06 1.7332065874e-06 -0.00016307216754 -1.0908456534e-19 1.5824945917e-06
          -0.00017103277526 3.3306898498e-19 -9.7163750511e-06 -0.00017224646552 -1.2043199156e-19 -1.191217339e-19
          -0.00017103277526 2.0422142381e-19 9.7163750511e-06 -0.00016307216754 -3.7383902918e-19 -1.5824945917e-06
          -0.00015905851117 -4.8251483649e-06 -1.7332065874e-06 -0.00016690919319 -9.0925406427e-06 -9.0925406427e-06
          -0.00017103277526 -9.7163750511e-06 -1.2528360474e-19 -0.00016690919319 -9.0925406427e-06 9.0925406427e-06
          -0.00015905851117 -4.8251483649e-06 1.7332065874e-06 -0.00015555974908 6.6805966068e-06 6.6805966068e-06
          -0.00015905851117 -1.7332065874e-06 -4.8251483649e-06 -0.00016307216754 1.5824945917e-06 -9.928098241e-20
          -0.00015905851117 -1.7332065874e-06 4.8251483649e-06 -0.00015555974908 6.6805966068e-06 -6.6805966068e-06
          -0.00016392139498 -1.2392563543e-05 1.2392563543e-05 -0.00015505051214 -7.2309677648e-06 2.735475176e-06
          -0.00015644056882 -8.6697603531e-06 -2.6875387296e-19 -0.00015505051214 -7.2309677648e-06 -2.735475176e-06
          -0.00016392139498 -1.2392563543e-05 -1.2392563543e-05 -0.00015505051214 -2.735475176e-06 7.2309677648e-06
          -0.00015553453451 2.0804987139e-06 -2.0804987139e-06 -0.00015750617618 2.077861267e-06 -3.8330131133e-19
          -0.00015553453451 2.0804987139e-06 2.0804987139e-06 -0.00015505051214 -2.735475176e-06 -7.2309677648e-06
          -0.00015644056882 -3.2700203801e-19 8.6697603531e-06 -0.00015750617618 -1.2610418989e-19 -2.077861267e-06
          -0.00015504949413 -8.9525167544e-20 -2.8383518618e-19 -0.00015750617618 6.7386231014e-20 2.077861267e-06
          -0.00015644056882 -5.4242130121e-20 -8.6697603531e-06 -0.00015505051214 2.735475176e-06 7.2309677648e-06
          -0.00015553453451 -2.0804987139e-06 -2.0804987139e-06 -0.00015750617618 -2.077861267e-06 -3.3059355047e-20
          -0.00015553453451 -2.0804987139e-06 2.0804987139e-06 -0.00015505051214 2.735475176e-06 -7.2309677648e-06
          -0.00016392139498 1.2392563543e-05 1.2392563543e-05 -0.00015505051214 7.2309677648e-06 2.735475176e-06
          -0.00015644056882 8.6697603531e-06 -6.8099890069e-20 -0.00015505051214 7.2309677648e-06 -2.735475176e-06
          -0.00016392139498 1.2392563543e-05 -1.2392563543e-05 -0.00018309064558 -1.1943079614e-05 1.1943079614e-05
          -0.00017078456944 -1.2571398717e-05 6.2320123923e-06 -0.00017037908344 -1.2357072678e-05 -2.0568670219e-19
          -0.00017078456944 -1.2571398717e-05 -6.2320123923e-06 -0.00018309064558 -1.1943079614e-05 -1.1943079614e-05
          -0.00017078456944 -6.2320123923e-06 1.2571398717e-05 -0.00016708265343 -3.4965024833e-06 3.4965024833e-06
          -0.00016772503364 -4.1461153866e-06 -2.5577290495e-19 -0.00016708265343 -3.4965024833e-06 -3.4965024833e-06
          -0.00017078456944 -6.2320123923e-06 -1.2571398717e-05 -0.00017037908344 -9.1106262086e-20 1.2357072678e-05
          -0.00016772503364 1.4523076412e-19 4.1461153866e-06 -0.00016625159375 -2.2614262151e-19 -4.1503766372e-19
          -0.00016772503364 -1.4308258443e-19 -4.1461153866e-06 -0.00017037908344 -2.8787770615e-19 -1.2357072678e-05
          -0.00017078456944 6.2320123923e-06 1.2571398717e-05 -0.00016708265343 3.4965024833e-06 3.4965024833e-06
          -0.00016772503364 4.1461153866e-06 -1.2942850342e-19 -0.00016708265343 3.4965024833e-06 -3.4965024833e-06
          -0.00017078456944 6.2320123923e-06 -1.2571398717e-05 -0.00018309064558 1.1943079614e-05 1.1943079614e-05
          -0.00017078456944 1.2571398717e-05 6.2320123923e-06 -0.00017037908344 1.2357072678e-05 2.4467364094e-19
          -0.00017078456944 1.2571398717e-05 -6.2320123923e-06 -0.00018309064558 1.1943079614e-05 -1.1943079614e-05
          -0.00019111413832 -1.1321520541e-05 1.1321520541e-05 -0.00017909653652 -1.4586054876e-05 8.3614259077e-06
          -0.00017816130436 -1.2150208895e-05 -1.2556744747e-19 -0.00017909653652 -1.4586054876e-05 -8.3614259077e-06
          -0.00019111413832 -1.1321520541e-05 -1.1321520541e-05 -0.00017909653652 -8.3614259077e-06 1.4586054876e-05
          -0.00017131857508 -8.325559977e-06 8.325559977e-06 -0.00017091279091 -8.6277793341e-06 2.1443776224e-19
          -0.00017131857508 -8.325559977e-06 -8.325559977e-06 -0.00017909653652 -8.3614259077e-06 -1.4586054876e-05
          -0.00017816130436 -1.4729890798e-19 1.2150208895e-05 -0.00017091279091 -3.2947831234e-19 8.6277793341e-06
          -0.00016912744828 1.8916355421e-19 -2.2234917288e-19 -0.00017091279091 5.3710255118e-20 -8.6277793341e-06
          -0.00017816130436 1.0149460934e-19 -1.2150208895e-05 -0.00017909653652 8.3614259077e-06 1.4586054876e-05
          -0.00017131857508 8.325559977e-06 8.325559977e-06 -0.00017091279091 8.6277793341e-06 2.3256290732e-20
          -0.00017131857508 8.325559977e-06 -8.325559977e-06 -0.00017909653652 8.3614259077e-06 -1.4586054876e-05
          -0.00019111413832 1.1321520541e-05 1.1321520541e-05 -0.00017909653652 1.4586054876e-05 8.3614259077e-06
          -0.00017816130436 1.2150208895e-05 -1.4888868186e-19 -0.00017909653652 1.4586054876e-05 -8.3614259077e-06
          -0.00019111413832 1.1321520541e-05 -1.1321520541e-05 -0.00019659423409 -7.815696478e-06 7.815696478e-06
          -0.00019154351405 -1.2016716289e-05 6.1296686602e-06 -0.00019107828002 -9.0969934197e-06 -2.5348014135e-19
          -0.00019154351405 -1.2016716289e-05 -6.1296686602e-06 -0.00019659423409 -7.815696478e-06 -7.815696478e-06
          -0.00019154351405 -6.1296686602e-06 1.2016716289e-05 -0.00018809687588 -7.5232688488e-06 7.5232688488e-06
          -0.00018822106285 -7.5358859172e-06 9.2710656221e-21 -0.00018809687588 -7.5232688488e-06 -7.5232688488e-06
          -0.00019154351405 -6.1296686602e-06 -1.2016716289e-05 -0.00019107828002 -1.5250553041e-19 9.0969934197e-06
          -0.00018822106285 -1.5358534578e-19 7.5358859172e-06 -0.00018808450653 5.5653441741e-20 2.3015012936e-19
          -0.00018822106285 3.7490276096e-19 -7.5358859172e-06 -0.00019107828002 5.4049439678e-19 -9.0969934197e-06
          -0.00019154351405 6.1296686602e-06 1.2016716289e-05 -0.00018809687588 7.5232688488e-06 7.5232688488e-06
          -0.00018822106285 7.5358859172e-06 1.5234596228e-20 -0.00018809687588 7.5232688488e-06 -7.5232688488e-06
          -0.00019154351405 6.1296686602e-06 -1.2016716289e-05 -0.00019659423409 7.815696478e-06 7.815696478e-06
          -0.00019154351405 1.2016716289e-05 6.1296686602e-06 -0.00019107828002 9.0969934197e-06 3.3139486955e-19
          -0.00019154351405 1.2016716289e-05 -6.1296686602e-06 -0.00019659423409 7.815696478e-06 -7.815696478e-06
          -0.00019508682232 -3.1763049985e-06 3.1763049985e-06 -0.0001975840353 -5.7382137292e-06 2.4802488636e-06
          -0.00019893840666 -3.5987329742e-06 2.0506156765e-20 -0.0001975840353 -5.7382137292e-06 -2.4802488636e-06
          -0.00019508682232 -3.1763049985e-06 -3.1763049985e-06 -0.0001975840353 -2.4802488636e-06 5.7382137292e-06
          -0.00019968144097 -3.8898752035e-06 3.8898752035e-06 -0.00020132892371 -3.6566872743e-06 -6.534077295e-20
          -0.00019968144097 -3.8898752035e-06 -3.8898752035e-06 -0.0001975840353 -2.4802488636e-06 -5.7382137292e-06
          -0.00019893840666 -2.5445677007e-19 3.5987329742e-06 -0.00020132892371 -2.8338290051e-19 3.6566872743e-06
          -0.00020316391248 2.2527155984e-19 2.9882422e-20 -0.00020132892371 3.1454251877e-19 -3.6566872743e-06
          -0.00019893840666 1.040768617e-19 -3.5987329742e-06 -0.0001975840353 2.4802488636e-06 5.7382137292e-06
          -0.00019968144097 3.8898752035e-06 3.8898752035e-06 -0.00020132892371 3.6566872743e-06 -4.3167609027e-19
          -0.00019968144097 3.8898752035e-06 -3.8898752035e-06 -0.0001975840353 2.4802488636e-06 -5.7382137292e-06
          -0.00019508682232 3.1763049985e-06 3.1763049985e-06 -0.0001975840353 5.7382137292e-06 2.4802488636e-06
          -0.00019893840666 3.5987329742e-06 6.3612173964e-20 -0.0001975840353 5.7382137292e-06 -2.4802488636e-06
          -0.00019508682232 3.1763049985e-06 -3.1763049985e-06 -0.00018513559947 1.2771549126e-06 -1.2771549126e-06
          -0.00019217592643 9.1676533565e-07 -6.7176285814e-07 -0.00019526511376 1.4955026786e-06 3.6896985597e-21
          -0.00019217592643 9.1676533565e-07 6.7176285814e-07 -0.00018513559947 1.2771549126e-06 1.2771549126e-06
          -0.00019217592643 6.7176285814e-07 -9.1676533565e-07 -0.00019845240113 1.9084262831e-08 -1.9084262831e-08
          -0.00020162288377 1.9975519662e-07 6.3950817979e-20 -0.00019845240113 1.9084262831e-08 1.9084262831e-08
          -0.00019217592643 6.7176285814e-07 9.1676533565e-07 -0.00019526511376 1.9035301611e-19 -1.4955026786e-06
          -0.00020162288377 2.5401569229e-19 -1.9975519662e-07 -0.00020510863047 1.8439328671e-20 -2.7969440892e-19
          -0.00020162288377 9.0155049324e-20 1.9975519662e-07 -0.00019526511376 -1.722764283e-20 1.4955026786e-06
          -0.00019217592643 -6.7176285814e-07 -9.1676533565e-07 -0.00019845240113 -1.9084262831e-08 -1.9084262831e-08
          -0.00020162288377 -1.9975519662e-07 -5.9924633111e-20 -0.00019845240113 -1.9084262831e-08 1.9084262831e-08
          -0.00019217592643 -6.7176285814e-07 9.1676533565e-07 -0.00018513559947 -1.2771549126e-06 -1.2771549126e-06
          -0.00019217592643 -9.1676533565e-07 -6.7176285814e-07 -0.00019526511376 -1.4955026786e-06 8.9074606915e-20
          -0.00019217592643 -9.1676533565e-07 6.7176285814e-07 -0.00018513559947 -1.2771549126e-06 1.2771549126e-06
          -0.00017393772041 7.5298320666e-06 -7.5298320666e-06 -0.00018206259798 9.1264175084e-06 -3.5718609818e-06
          -0.0001858960792 7.8085067839e-06 -2.0553480878e-19 -0.00018206259798 9.1264175084e-06 3.5718609818e-06
          -0.00017393772041 7.5298320666e-06 7.5298320666e-06 -0.00018206259798 3.5718609818e-06 -9.1264175084e-06
          -0.00018951423298 3.9117284974e-06 -3.9117284974e-06 -0.00019327703152 3.6541137088e-06 -7.4157095698e-20
          -0.00018951423298 3.9117284974e-06 3.9117284974e-06 -0.00018206259798 3.5718609818e-06 9.1264175084e-06
          -0.0001858960792 1.2308124986e-19 -7.8085067839e-06 -0.00019327703152 -1.5688464148e-19 -3.6541137088e-06
          -0.00019724528237 -2.5662046265e-20 2.7873460286e-19 -0.00019327703152 1.7292870921e-19 3.6541137088e-06
          -0.0001858960792 -7.4525402976e-20 7.8085067839e-06 -0.00018206259798 -3.5718609818e-06 -9.1264175084e-06
          -0.00018951423298 -3.9117284974e-06 -3.9117284974e-06 -0.00019327703152 -3.6541137088e-06 1.26682108e-19
          -0.00018951423298 -3.9117284974e-06 3.9117284974e-06 -0.00018206259798 -3.5718609818e-06 9.1264175084e-06
          -0.00017393772041 -7.5298320666e-06 -7.5298320666e-06 -0.00018206259798 -9.1264175084e-06 -3.5718609818e-06
          -0.0001858960792 -7.8085067839e-06 1.3494270285e-19 -0.00018206259798 -9.1264175084e-06 3.5718609818e-06
          -0.00017393772041 -7.5298320666e-06 7.5298320666e-06 -0.00016092638291 1.368289851e-05 -1.368289851e-05
          -0.00016682508531 1.6529752204e-05 -5.588159227e-06 -0.00017007756746 1.3677308281e-05 -3.795151757e-19
          -0.00016682508531 1.6529752204e-05 5.588159227e-06 -0.00016092638291 1.368289851e-05 1.368289851e-05
          -0.00016682508531 5.588159227e-06 -1.6529752204e-05 -0.00017229658301 6.6834123491e-06 -6.6834123491e-06
          -0.00017540687435 5.8536589679e-06 -7.8652212159e-21 -0.00017229658301 6.6834123491e-06 6.6834123491e-06
          -0.00016682508531 5.588159227e-06 1.6529752204e-05 -0.00017007756746 6.4340127561e-20 -1.3677308281e-05
          -0.00017540687435 -2.1863634333e-20 -5.8536589679e-06 -0.00017850522945 5.8155712449e-20 2.2271524054e-19
          -0.00017540687435 2.3727215572e-20 5.8536589679e-06 -0.00017007756746 2.4272474921e-19 1.3677308281e-05
          -0.00016682508531 -5.588159227e-06 -1.6529752204e-05 -0.00017229658301 -6.6834123491e-06 -6.6834123491e-06
          -0.00017540687435 -5.8536589679e-06 -2.3065969549e-19 -0.00017229658301 -6.6834123491e-06 6.6834123491e-06
          -0.00016682508531 -5.588159227e-06 1.6529752204e-05 -0.00016092638291 -1.368289851e-05 -1.368289851e-05
          -0.00016682508531 -1.6529752204e-05 -5.588159227e-06 -0.00017007756746 -1.3677308281e-05 -3.784252819e-21
          -0.00016682508531 -1.6529752204e-05 5.588159227e-06 -0.00016092638291 -1.368289851e-05 1.368289851e-05
          -0.00014586890413 1.8393752244e-05 -1.8393752244e-05 -0.00014821811043 2.1653674081e-05 -6.7438171039e-06
          -0.00014993571001 1.7933681877e-05 2.8616681132e-19 -0.00014821811043 2.1653674081e-05 6.7438171039e-06
          -0.00014586890413 1.8393752244e-05 1.8393752244e-05 -0.00014821811043 6.7438171039e-06 -2.1653674081e-05
          -0.0001504366317 8.1938553582e-06 -8.1938553582e-06 -0.0001520332149 6.8887875726e-06 -1.8451084719e-19
          -0.0001504366317 8.1938553582e-06 8.1938553582e-06 -0.00014821811043 6.7438171039e-06 2.1653674081e-05