<?xml version="1.0"?>
<VTKFile type="UnstructuredGrid" version="0.1" byte_order="LittleEndian" compressor="vtkZLibDataCompressor">
  <UnstructuredGrid>
    <Piece NumberOfPoints="525" NumberOfCells="525">
      <PointData>
        <DataArray type="Float64" Name="Damage" format="ascii" RangeMin="0" RangeMax="0">
          0 0 0 0 0 0
          0 0 0 0 0 0
          0 0 0 0 0 0
          0 0 0 0 0 0
          0 0 0 0 0 0
          0 0 0 0 0 0
          0 0 0 0 0 0
          0 0 0 0 0 0
          0 0 0 0 0 0
          0 0 0 0 0 0
          0 0 0 0 0 0
          0 0 0 0 0 0
          0 0 0 0 0 0
          0 0 0 0 0 0
          0 0 0 0 0 0
          0 0 0 0 0 0
          0 0 0 0 0 0
          0 0 0 0 0 0
          0 0 0 0 0 0
          0 0 0 0 0 0
          0 0 0 0 0 0
          0 0 0 0 0 0
          0 0 0 0 0 0
          0 0 0 0 0 0
          0 0 0 0 0 0
          0 0 0 0 0 0
          0 0 0 0 0 0
          0 0 0 0 0 0
          0 0 0 0 0 0
          0 0 0 0 0 0
          0 0 0 0 0 0
          0 0 0 0 0 0
          0 0 0 0 0 0
          0 0 0 0 0 0
          0 0 0 0 0 0
          0 0 0 0 0 0
          0 0 0 0 0 0
          0 0 0 0 0 0
          0 0 0 0 0 0
          0 0 0 0 0 0
          0 0 0 0 0 0
          0 0 0 0 0 0
          0 0 0 0 0 0
          0 0 0 0 0 0
          0 0 0 0 0 0
          0 0 0 0 0 0
          0 0 0 0 0 0
          0 0 0 0 0 0
          0 0 0 0 0 0
          0 0 0 0 0 0
          0 0 0 0 0 0
          0 0 0 0 0 0
          0 0 0 0 0 0
          0 0 0 0 0 0
          0 0 0 0 0 0
          0 0 0 0 0 0
          0 0 0 0 0 0
          0 0 0 0 0 0
          0 0 0 0 0 0
          0 0 0 0 0 0
          0 0 0 0 0 0
          0 0 0 0 0 0
          0 0 0 0 0 0
          0 0 0 0 0 0
          0 0 0 0 0 0
          0 0 0 0 0 0
          0 0 0 0 0 0
          0 0 0 0 0 0
          0 0 0 0 0 0
          0 0 0 0 0 0
          0 0 0 0 0 0
          0 0 0 0 0 0
          0 0 0 0 0 0
          0 0 0 0 0 0
          0 0 0 0 0 0
          0 0 0 0 0 0
          0 0 0 0 0 0
          0 0 0 0 0 0
          0 0 0 0 0 0
          0 0 0 0 0 0
          0 0 0 0 0 0
          0 0 0 0 0 0
          0 0 0 0 0 0
          0 0 0 0 0 0
          0 0 0 0 0 0
          0 0 0 0 0 0
          0 0 0 0 0 0
          0 0 0
        </DataArray>
        <DataArray type="Float64" Name="Dilatation" format="ascii" RangeMin="-0.001449447509" RangeMax="0.01786380068">
          0.0079343889039 0.0074415181173 0.0081193740615 0.0074415181173 0.0079343889039 0.0074415181173
          0.004948932699 0.0053069003405 0.004948932699 0.0074415181173 0.0081193740615 0.0053069003405
          0.0062880897677 0.0053069003405 0.0081193740615 0.0074415181173 0.004948932699 0.0053069003405
          0.004948932699 0.0074415181173 0.0079343889039 0.0074415181173 0.0081193740615 0.0074415181173
          0.0079343889039 0.0098438802189 0.0083506878783 0.0083111282312 0.0083506878783 0.0098438802189
          0.0083506878783 0.0066399178327 0.0062909071675 0.0066399178327 0.0083506878783 0.0083111282312
          0.0062909071675 0.0062248733593 0.0062909071675 0.0083111282312 0.0083506878783 0.0066399178327
          0.0062909071675 0.0066399178327 0.0083506878783 0.0098438802189 0.0083506878783 0.0083111282312
          0.0083506878783 0.0098438802189 0.0069585984597 0.0059487777241 0.0056415721148 0.0059487777241
          0.0069585984597 0.0059487777241 0.0067556352708 0.0057820278911 0.0067556352708 0.0059487777241
          0.0056415721148 0.0057820278911 0.0048872784819 0.0057820278911 0.0056415721148 0.0059487777241
          0.0067556352708 0.0057820278911 0.0067556352708 0.0059487777241 0.0069585984597 0.0059487777241
          0.0056415721148 0.0059487777241 0.0069585984597 0.00084796342324 0.0025690979715 0.002667021612
          0.0025690979715 0.00084796342324 0.0025690979715 0.0059991940829 0.0049061633606 0.0059991940829
          0.0025690979715 0.002667021612 0.0049061633606 0.0032940512272 0.0049061633606 0.002667021612
          0.0025690979715 0.0059991940829 0.0049061633606 0.0059991940829 0.0025690979715 0.00084796342324
          0.0025690979715 0.002667021612 0.0025690979715 0.00084796342324 -0.001449447509 0.001002670433
          0.00079924849257 0.001002670433 -0.001449447509 0.001002670433 0.0051604207902 0.0037352931458
          0.0051604207902 0.001002670433 0.00079924849257 0.0037352931458 0.0015497513162 0.0037352931458
          0.00079924849257 0.001002670433 0.0051604207902 0.0037352931458 0.0051604207902 0.001002670433
          -0.001449447509 0.001002670433 0.00079924849257 0.001002670433 -0.001449447509 0.0017151086053
          0.003943368747 0.0031856461401 0.003943368747 0.0017151086053 0.003943368747 0.0073394673476
          0.0054870704097 0.0073394673476 0.003943368747 0.0031856461401 0.0054870704097 0.0029559913856
          0.0054870704097 0.0031856461401 0.003943368747 0.0073394673476 0.0054870704097 0.0073394673476
          0.003943368747 0.0017151086053 0.003943368747 0.0031856461401 0.003943368747 0.0017151086053
          0.0045368901254 0.0060547357443 0.0050385773309 0.0060547357443 0.0045368901254 0.0060547357443
          0.0084655242299 0.0066399658353 0.0084655242299 0.0060547357443 0.0050385773309 0.0066399658353
          0.0043340283786 0.0066399658353 0.0050385773309 0.0060547357443 0.0084655242299 0.0066399658353
          0.0084655242299 0.0060547357443 0.0045368901254 0.0060547357443 0.0050385773309 0.0060547357443
          0.0045368901254 0.0062633645316 0.0069462352288 0.0058371187356 0.0069462352288 0.0062633645316
          0.0069462352288 0.0082269273029 0.0066099200251 0.0082269273029 0.0069462352288 0.0058371187356
          0.0066099200251 0.0047265482441 0.0066099200251 0.0058371187356 0.0069462352288 0.0082269273029
          0.0066099200251 0.0082269273029 0.0069462352288 0.0062633645316 0.0069462352288 0.0058371187356
          0.0069462352288 0.0062633645316 0.0061903400672 0.0063740740195 0.0054047631098 0.0063740740195
          0.0061903400672 0.0063740740195 0.0069199445628 0.0056584144623 0.0069199445628 0.0063740740195
          0.0054047631098 0.0056584144623 0.004277478724 0.0056584144623 0.0054047631099 0.0063740740195
          0.0069199445628 0.0056584144623 0.0069199445628 0.0063740740195 0.0061903400672 0.0063740740195
          0.0054047631099 0.0063740740195 0.0061903400672 0.004832132209 0.0047837948528 0.0040717749737
          0.0047837948528 0.004832132209 0.0047837948528 0.0049533395904 0.0040917239067 0.0049533395904
          0.0047837948528 0.0040717749737 0.0040917239067 0.003194121233 0.0040917239067 0.0040717749737
          0.0047837948528 0.0049533395904 0.0040917239067 0.0049533395904 0.0047837948528 0.004832132209
          0.0047837948528 0.0040717749737 0.0047837948528 0.004832132209 0.0032243258245 0.0031151867991
          0.0026562560107 0.0031151867991 0.0032243258245 0.0031151867991 0.0031259168076 0.002597601653
          0.0031259168076 0.0031151867991 0.0026562560107 0.002597601653 0.0020680240349 0.002597601653
          0.0026562560107 0.0031151867991 0.0031259168076 0.002597601653 0.0031259168076 0.0031151867991
          0.0032243258245 0.0031151867991 0.0026562560107 0.0031151867991 0.0032243258245 0.001896870432
          0.0018035528089 0.0015396914853 0.0018035528089 0.001896870432 0.0018035528089 0.0017729719557
          0.0014796908359 0.0017729719557 0.0018035528089 0.0015396914853 0.0014796908359 0.0011938386118
          0.0014796908359 0.0015396914853 0.0018035528089 0.0017729719557 0.0014796908359 0.0017729719557
          0.0018035528089 0.001896870432 0.0018035528089 0.0015396914853 0.0018035528089 0.001896870432
          0.0010023035087 0.00094139169382 0.00080380289229 0.00094139169382 0.0010023035087 0.00094139169382
          0.00091205367574 0.0007632910051 0.00091205367574 0.00094139169382 0.00080380289229 0.0007632910051
          0.00062147404662 0.0007632910051 0.00080380289229 0.00094139169382 0.00091205367574 0.0007632910051
          0.00091205367574 0.00094139169382 0.0010023035087 0.00094139169382 0.00080380289229 0.00094139169382
          0.0010023035087 0.00048366177563 0.00044997685769 0.00038410244036 0.00044997685769 0.00048366177563
          0.00044997685769 0.0004312156674 0.00036151726297 0.0004312156674 0.00044997685769 0.00038410244036
          0.00036151726297 0.00029625035304 0.00036151726297 0.00038410244036 0.00044997685769 0.0004312156674
          0.00036151726297 0.0004312156674 0.00044997685769 0.00048366177563 0.00044997685769 0.00038410244036
          0.00044997685769 0.00048366177563 0.00021473053486 0.00019812533839 0.00016893180951 0.00019812533839
          0.00021473053486 0.00019812533839 0.00018826342835 0.00015793733725 0.00018826342835 0.00019812533839
          0.00016893180951 0.00015793733725 0.00012992421659 0.00015793733725 0.00016893180951 0.00019812533839
          0.00018826342835 0.00015793733725 0.00018826342835 0.00019812533839 0.00021473053486 0.00019812533839
          0.00016893180951 0.00019812533839 0.00021473053486 8.9794238663e-05 8.1915549798e-05 6.9460920618e-05
          8.1915549798e-05 8.9794238663e-05 8.1915549798e-05 7.7014865193e-05 6.4332046221e-05 7.7014865193e-05
          8.1915549798e-05 6.9460920618e-05 6.4332046221e-05 5.2826205544e-05 6.4332046221e-05 6.9460920618e-05
          8.1915549798e-05 7.7014865193e-05 6.4332046221e-05 7.7014865193e-05 8.1915549798e-05 8.9794238663e-05
          8.1915549798e-05 6.9460920618e-05 8.1915549798e-05 8.9794238662e-05 4.0813064573e-05 3.7204726428e-05
          3.1375317113e-05 3.7204726428e-05 4.0813064573e-05 3.7204726428e-05 3.4694293471e-05 2.878233019e-05
          3.4694293471e-05 3.7204726428e-05 3.1375317113e-05 2.878233019e-05 2.3301324076e-05 2.878233019e-05
          3.1375317113e-05 3.7204726428e-05 3.4694293471e-05 2.878233019e-05 3.4694293471e-05 3.7204726428e-05
          4.0813064573e-05 3.7204726428e-05 3.1375317113e-05 3.7204726428e-05 4.0813064573e-05 1.8465776741e-05
          1.6784603123e-05 1.4661349436e-05 1.6784603123e-05 1.8465776741e-05 1.6784603123e-05 1.5540419293e-05
          1.3325145468e-05 1.5540419293e-05 1.6784603123e-05 1.4661349437e-05 1.3325145468e-05 1.1179168858e-05
          1.3325145467e-05 1.4661349437e-05 1.6784603123e-05 1.5540419293e-05 1.3325145467e-05 1.5540419293e-05
          1.6784603122e-05 1.8465776741e-05 1.6784603123e-05 1.4661349437e-05 1.6784603123e-05 1.8465776741e-05
          0.01786380068 0.014771252842 0.011760158263 0.014771252842 0.01786380068 0.014771252842
          0.011475071856 0.0088934148818 0.011475071856 0.014771252842 0.011760158263 0.0088934148818
          0.0079331766672 0.0088934148818 0.011760158263 0.014771252842 0.011475071856 0.0088934148818
          0.011475071856 0.014771252842 0.01786380068 0.014771252842 0.011760158263 0.014771252842
          0.01786380068 0.0083416512734 0.0064775317984 0.0069673208962 0.0064775317984 0.0083416512734
          0.0064775317984 0.0041551306352 0.0056689635353 0.0041551306352 0.0064775317984 0.0069673208962
          0.0056689635353 0.007249374809 0.0056689635353 0.0069673208962 0.0064775317984 0.0041551306352
          0.0056689635353 0.0041551306352 0.0064775317984 0.0083416512734 0.0064775317984 0.0069673208962
          0.0064775317984 0.0083416512734 0.008300830376 0.0075917425179 0.0077949427035 0.0075917425179
          0.008300830376 0.0075917425179 0.0046510145286 0.0052634983654 0.0046510145286 0.0075917425179
          0.0077949427035 0.0052634983654 0.0066070689596 0.0052634983654 0.0077949427035 0.0075917425179
          0.0046510145286 0.0052634983654 0.0046510145286 0.0075917425179 0.008300830376 0.0075917425179
          0.0077949427035 0.0075917425179 0.008300830376
        </DataArray>
        <DataArray type="Float64" Name="Displacement" NumberOfComponents="3" format="ascii" RangeMin="1.0216219046e-08" RangeMax="0.00021320188991">
          -0.0001604660273 -1.3397617943e-05 1.3397617943e-05 -0.00017665721873 -1.8241536147e-05 1.9774692468e-06
          -0.00018256415748 -1.7435839466e-05 2.772729382e-20 -0.00017665721873 -1.8241536147e-05 -1.9774692468e-06
          -0.0001604660273 -1.3397617943e-05 -1.3397617943e-05 -0.00017665721873 -1.9774692468e-06 1.8241536147e-05
          -0.00019732418735 -4.5787334742e-06 4.5787334742e-06 -0.00020425881357 -1.7386997352e-06 -3.0534014456e-19
          -0.00019732418735 -4.5787334742e-06 -4.5787334742e-06 -0.00017665721873 -1.9774692468e-06 -1.8241536147e-05
          -0.00018256415748 1.7733279153e-19 1.7435839466e-05 -0.00020425881357 -8.337253644e-20 1.7386997352e-06
          -0.0002107921992 -2.9149675448e-19 -1.6954565106e-19 -0.00020425881357 -2.0549865165e-19 -1.7386997352e-06
          -0.00018256415748 -1.2590649492e-19 -1.7435839466e-05 -0.00017665721873 1.9774692468e-06 1.8241536147e-05
          -0.00019732418735 4.5787334742e-06 4.5787334742e-06 -0.00020425881357 1.7386997352e-06 -5.0848862111e-20
          -0.00019732418735 4.5787334742e-06 -4.5787334742e-06 -0.00017665721873 1.9774692468e-06 -1.8241536147e-05
          -0.0001604660273 1.3397617943e-05 1.3397617943e-05 -0.00017665721873 1.8241536147e-05 1.9774692468e-06
          -0.00018256415748 1.7435839466e-05 -4.6452454848e-20 -0.00017665721873 1.8241536147e-05 -1.9774692468e-06
          -0.0001604660273 1.3397617943e-05 -1.3397617943e-05 -0.00016347468818 -9.1206397841e-06 9.1206397841e-06
          -0.00017704217875 -8.9978533918e-06 2.3158460747e-06 -0.0001857195091 -1.050413463e-05 -1.5220683384e-19
          -0.00017704217875 -8.9978533918e-06 -2.3158460747e-06 -0.00016347468818 -9.1206397841e-06 -9.1206397841e-06
          -0.00017704217875 -2.3158460747e-06 8.9978533918e-06 -0.00019450576272 -2.0838772421e-06 2.0838772421e-06
          -0.00020463767441 -1.1642276259e-06 1.4609684205e-19 -0.00019450576272 -2.0838772421e-06 -2.0838772421e-06
          -0.00017704217875 -2.3158460747e-06 -8.9978533918e-06 -0.0001857195091 2.7063459871e-19 1.050413463e-05
          -0.00020463767441 1.5106749671e-19 1.1642276259e-06 -0.00021320188991 -1.3664165403e-19 -1.9384120394e-22
          -0.00020463767441 1.7665821332e-19 -1.1642276259e-06 -0.0001857195091 1.9188260987e-19 -1.050413463e-05
          -0.00017704217875 2.3158460747e-06 8.9978533918e-06 -0.00019450576272 2.0838772421e-06 2.0838772421e-06
          -0.00020463767441 1.1642276259e-06 1.8000658184e-19 -0.00019450576272 2.0838772421e-06 -2.0838772421e-06
          -0.00017704217875 2.3158460747e-06 -8.9978533918e-06 -0.00016347468818 9.1206397841e-06 9.1206397841e-06
          -0.00017704217875 8.9978533918e-06 2.3158460747e-06 -0.0001857195091 1.050413463e-05 6.6154369496e-20
          -0.00017704217875 8.9978533918e-06 -2.3158460747e-06 -0.00016347468818 9.1206397841e-06 -9.1206397841e-06
          -0.00015062578994 3.9516588183e-06 -3.9516588183e-06 -0.00015434159482 9.0344122059e-06 -4.9102642794e-07
          -0.00016166588392 4.9636682754e-06 4.6667940626e-20 -0.00015434159482 9.0344122059e-06 4.9102642794e-07
          -0.00015062578994 3.9516588183e-06 3.9516588183e-06 -0.00015434159482 4.9102642794e-07 -9.0344122059e-06
          -0.00016068969375 3.2262808149e-06 -3.2262808149e-06 -0.00016889886481 2.5371744336e-06 1.2886246813e-19
          -0.00016068969375 3.2262808149e-06 3.2262808149e-06 -0.00015434159482 4.9102642794e-07 9.0344122059e-06
          -0.00016166588392 2.4571469907e-19 -4.9636682754e-06 -0.00016889886481 1.8229691746e-19 -2.5371744336e-06
          -0.00017591231474 -2.4965456469e-19 1.5508095519e-19 -0.00016889886481 1.1114135969e-19 2.5371744336e-06
          -0.00016166588392 1.6322797332e-19 4.9636682754e-06 -0.00015434159482 -4.9102642794e-07 -9.0344122059e-06
          -0.00016068969375 -3.2262808149e-06 -3.2262808149e-06 -0.00016889886481 -2.5371744336e-06 -3.5728160109e-20
          -0.00016068969375 -3.2262808149e-06 3.2262808149e-06 -0.00015434159482 -4.9102642794e-07 9.0344122059e-06
          -0.00015062578994 -3.9516588183e-06 -3.9516588183e-06 -0.00015434159482 -9.0344122059e-06 -4.9102642794e-07
          -0.00016166588392 -4.9636682754e-06 2.2340008087e-19 -0.00015434159482 -9.0344122059e-06 4.9102642794e-07
          -0.00015062578994 -3.9516588183e-06 3.9516588183e-06 -0.00014923999717 2.064158967e-05 -2.064158967e-05
          -0.00014829290339 2.5121765331e-05 -6.8523626369e-06 -0.00015201568236 1.9388494906e-05 5.1209706292e-20
          -0.00014829290339 2.5121765331e-05 6.8523626369e-06 -0.00014923999717 2.064158967e-05 2.064158967e-05
          -0.00014829290339 6.8523626369e-06 -2.5121765331e-05 -0.0001502419434 9.2924882263e-06 -9.2924882263e-06
          -0.00015441621906 7.2966718176e-06 -8.1806889576e-20 -0.0001502419434 9.2924882263e-06 9.2924882263e-06
          -0.00014829290339 6.8523626369e-06 2.5121765331e-05 -0.00015201568236 3.442282641e-19 -1.9388494906e-05
          -0.00015441621906 2.4584739322e-19 -7.2966718176e-06 -0.00015761564303 -1.0482450536e-19 -1.1553308602e-19
          -0.00015441621906 5.308389076e-19 7.2966718176e-06 -0.00015201568236 2.1440543337e-20 1.9388494906e-05
          -0.00014829290339 -6.8523626369e-06 -2.5121765331e-05 -0.0001502419434 -9.2924882263e-06 -9.2924882263e-06
          -0.00015441621906 -7.2966718176e-06 -1.8748372839e-20 -0.0001502419434 -9.2924882263e-06 9.2924882263e-06
          -0.00014829290339 -6.8523626369e-06 2.5121765331e-05 -0.00014923999717 -2.064158967e-05 -2.064158967e-05
          -0.00014829290339 -2.5121765331e-05 -6.8523626369e-06 -0.00015201568236 -1.9388494906e-05 -1.3002275865e-19
          -0.00014829290339 -2.5121765331e-05 6.8523626369e-06 -0.00014923999717 -2.064158967e-05 2.064158967e-05
          -0.00013897320706 2.8770784959e-05 -2.8770784959e-05 -0.00013331941698 3.2774730108e-05 -8.7440167518e-06
          -0.00013266991404 2.7226119134e-05 6.578139516e-22 -0.00013331941698 3.2774730108e-05 8.7440167518e-06
          -0.00013897320706 2.8770784959e-05 2.8770784959e-05 -0.00013331941698 8.7440167518e-06 -3.2774730108e-05
          -0.00012831650816 1.0890936527e-05 -1.0890936527e-05 -0.00012779591272 8.5641260364e-06 -8.0084714124e-20
          -0.00012831650816 1.0890936527e-05 1.0890936527e-05 -0.00013331941698 8.7440167518e-06 3.2774730108e-05
          -0.00013266991404 -1.2779434038e-19 -2.7226119134e-05 -0.00012779591272 -1.9306405852e-19 -8.5641260364e-06
          -0.00012680426196 -3.4518295897e-20 -2.5076689637e-19 -0.00012779591272 1.1250195056e-19 8.5641260364e-06
          -0.00013266991404 1.6449216835e-19 2.7226119134e-05 -0.00013331941698 -8.7440167518e-06 -3.2774730108e-05
          -0.00012831650816 -1.0890936527e-05 -1.0890936527e-05 -0.00012779591272 -8.5641260364e-06 2.0439974227e-20
          -0.00012831650816 -1.0890936527e-05 1.0890936527e-05 -0.00013331941698 -8.7440167518e-06 3.2774730108e-05
          -0.00013897320706 -2.8770784959e-05 -2.8770784959e-05 -0.00013331941698 -3.2774730108e-05 -8.7440167518e-06
          -0.00013266991404 -2.7226119134e-05 6.6840099931e-20 -0.00013331941698 -3.2774730108e-05 8.7440167518e-06
          -0.00013897320706 -2.8770784959e-05 2.8770784959e-05 -0.00011376458071 2.7179145769e-05 -2.7179145769e-05
          -0.00010663957733 2.9635313499e-05 -8.020717081e-06 -0.00010350027049 2.5073498864e-05 1.7375906264e-20
          -0.00010663957733 2.9635313499e-05 8.020717081e-06 -0.00011376458071 2.7179145769e-05 2.7179145769e-05
          -0.00010663957733 8.020717081e-06 -2.9635313499e-05 -9.9558849681e-05 9.3279330236e-06 -9.3279330236e-06
          -9.654038823e-05 7.1004713093e-06 -9.5763725523e-21 -9.9558849681e-05 9.3279330236e-06 9.3279330236e-06
          -0.00010663957733 8.020717081e-06 2.9635313499e-05 -0.00010350027049 -7.5311293793e-21 -2.5073498864e-05
          -9.654038823e-05 1.4929435367e-19 -7.1004713093e-06 -9.3177565085e-05 -2.034806201e-19 -2.0423734023e-19
          -9.654038823e-05 9.0020266263e-21 7.1004713093e-06 -0.00010350027049 -1.788790599e-19 2.5073498864e-05
          -0.00010663957733 -8.020717081e-06 -2.9635313499e-05 -9.9558849681e-05 -9.3279330236e-06 -9.3279330236e-06
          -9.654038823e-05 -7.1004713093e-06 6.1720004693e-20 -9.9558849681e-05 -9.3279330236e-06 9.3279330236e-06
          -0.00010663957733 -8.020717081e-06 2.9635313499e-05 -0.00011376458071 -2.7179145769e-05 -2.7179145769e-05
          -0.00010663957733 -2.9635313499e-05 -8.020717081e-06 -0.00010350027049 -2.5073498864e-05 -1.1932738191e-19
          -0.00010663957733 -2.9635313499e-05 8.020717081e-06 -0.00011376458071 -2.7179145769e-05 2.7179145769e-05
          -8.5005544429e-05 2.1856006121e-05 -2.1856006121e-05 -7.9049165673e-05 2.3538572372e-05 -6.6364664506e-06
          -7.5343535084e-05 2.0358710869e-05 -4.4412378786e-19 -7.9049165673e-05 2.3538572372e-05 6.6364664506e-06
          -8.5005544429e-05 2.1856006121e-05 2.1856006121e-05 -7.9049165673e-05 6.6364664506e-06 -2.3538572372e-05
          -7.3347049537e-05 7.495742048e-06 -7.495742048e-06 -6.9838573055e-05 5.8098968791e-06 -2.5244022e-19
          -7.3347049537e-05 7.495742048e-06 7.495742048e-06 -7.9049165673e-05 6.6364664506e-06 2.3538572372e-05
          -7.5343535084e-05 -1.3150078226e-19 -2.0358710869e-05 -6.9838573055e-05 -3.8681066999e-19 -5.8098968791e-06
          -6.6433051314e-05 -4.294964533e-19 -2.0079868068e-19 -6.9838573055e-05 6.1231691428e-20 5.8098968791e-06
          -7.5343535084e-05 1.1694257463e-19 2.0358710869e-05 -7.9049165673e-05 -6.6364664506e-06 -2.3538572372e-05
          -7.3347049537e-05 -7.495742048e-06 -7.495742048e-06 -6.9838573055e-05 -5.8098968791e-06 -2.1266783945e-20
          -7.3347049537e-05 -7.495742048e-06 7.495742048e-06 -7.9049165673e-05 -6.6364664506e-06 2.3538572372e-05
          -8.5005544429e-05 -2.1856006121e-05 -2.1856006121e-05 -7.9049165673e-05 -2.3538572372e-05 -6.6364664506e-06
          -7.5343535084e-05 -2.0358710869e-05 7.0303494174e-20 -7.9049165673e-05 -2.3538572372e-05 6.6364664506e-06
          -8.5005544429e-05 -2.1856006121e-05 2.1856006121e-05 -5.5746808206e-05 1.4539666708e-05 -1.4539666708e-05
          -5.1630896782e-05 1.5555308019e-05 -4.4120273628e-06 -4.8540762356e-05 1.3623703548e-05 -2.1860222461e-19
          -5.1630896782e-05 1.5555308019e-05 4.4120273628e-06 -5.5746808206e-05 1.4539666708e-05 1.4539666708e-05
          -5.1630896782e-05 4.4120273628e-06 -1.5555308019e-05 -4.7768335471e-05 4.9141362133e-06 -4.9141362133e-06
          -4.4876319521e-05 3.7962740151e-06 -1.4508552069e-19 -4.7768335471e-05 4.9141362133e-06 4.9141362133e-06
          -5.1630896782e-05 4.4120273628e-06 1.5555308019e-05 -4.8540762356e-05 -1.7367129426e-19 -1.3623703548e-05
          -4.4876319521e-05 -1.0533234605e-19 -3.7962740151e-06 -4.2197740572e-05 -2.0926653243e-21 4.2914402245e-19
          -4.4876319521e-05 9.8335070946e-21 3.7962740151e-06 -4.8540762356e-05 4.7229385785e-19 1.3623703548e-05
          -5.1630896782e-05 -4.4120273628e-06 -1.5555308019e-05 -4.7768335471e-05 -4.9141362133e-06 -4.9141362133e-06
          -4.4876319521e-05 -3.7962740151e-06 1.4037133713e-19 -4.7768335471e-05 -4.9141362133e-06 4.9141362133e-06
          -5.1630896782e-05 -4.4120273628e-06 1.5555308019e-05 -5.5746808206e-05 -1.4539666708e-05 -1.4539666708e-05
          -5.1630896782e-05 -1.5555308019e-05 -4.4120273628e-06 -4.8540762356e-05 -1.3623703548e-05 2.461569593e-19
          -5.1630896782e-05 -1.5555308019e-05 4.4120273628e-06 -5.5746808206e-05 -1.4539666708e-05 1.4539666708e-05
          -3.3065244665e-05 8.6347471253e-06 -8.6347471253e-06 -3.0547474358e-05 9.1911419201e-06 -2.6402579603e-06
          -2.8421072606e-05 8.1200357764e-06 2.3006675376e-19 -3.0547474358e-05 9.1911419201e-06 2.6402579603e-06
          -3.3065244665e-05 8.6347471253e-06 8.6347471253e-06 -3.0547474358e-05 2.6402579603e-06 -9.1911419201e-06
          -2.827092789e-05 2.9098976049e-06 -2.9098976049e-06 -2.6307369228e-05 2.247218669e-06 1.5488532353e-19
          -2.827092789e-05 2.9098976049e-06 2.9098976049e-06 -3.0547474358e-05 2.6402579603e-06 9.1911419201e-06
          -2.8421072606e-05 -4.4281352208e-20 -8.1200357764e-06 -2.6307369228e-05 -1.9817813372e-19 -2.247218669e-06
          -2.4521707808e-05 1.0522150547e-19 -1.1031225218e-19 -2.6307369228e-05 4.5153954864e-19 2.247218669e-06
          -2.8421072606e-05 -3.7484182167e-20 8.1200357764e-06 -3.0547474358e-05 -2.6402579603e-06 -9.1911419201e-06
          -2.827092789e-05 -2.9098976049e-06 -2.9098976049e-06 -2.6307369228e-05 -2.247218669e-06 3.6093607324e-20
          -2.827092789e-05 -2.9098976049e-06 2.9098976049e-06 -3.0547474358e-05 -2.6402579603e-06 9.1911419201e-06
          -3.3065244665e-05 -8.6347471253e-06 -8.6347471253e-06 -3.0547474358e-05 -9.1911419201e-06 -2.6402579603e-06
          -2.8421072606e-05 -8.1200357764e-06 4.046665107e-20 -3.0547474358e-05 -9.1911419201e-06 2.6402579603e-06
          -3.3065244665e-05 -8.6347471253e-06 8.6347471253e-06 -1.7906005232e-05 4.6194240645e-06 -4.6194240645e-06
          -1.6511506488e-05 4.9126129012e-06 -1.4228454359e-06 -1.5235793502e-05 4.3728836144e-06 3.4128387177e-20
          -1.6511506488e-05 4.9126129012e-06 1.4228454359e-06 -1.7906005232e-05 4.6194240645e-06 4.6194240645e-06
          -1.6511506488e-05 1.4228454359e-06 -4.9126129012e-06 -1.5319593726e-05 1.5620384027e-06 -1.5620384027e-06
          -1.4159850964e-05 1.2083692083e-06 3.4453842708e-19 -1.5319593726e-05 1.5620384027e-06 1.5620384027e-06
          -1.6511506488e-05 1.4228454359e-06 4.9126129012e-06 -1.5235793502e-05 2.3941817274e-19 -4.3728836144e-06
          -1.4159850964e-05 3.3711399396e-19 -1.2083692083e-06 -1.3128079968e-05 3.200587691e-20 2.17948274e-19
          -1.4159850964e-05 8.541251194e-20 1.2083692083e-06 -1.5235793502e-05 -6.4145216734e-20 4.3728836144e-06
          -1.6511506488e-05 -1.4228454359e-06 -4.9126129012e-06 -1.5319593726e-05 -1.5620384027e-06 -1.5620384027e-06
          -1.4159850964e-05 -1.2083692083e-06 1.405077945e-19 -1.5319593726e-05 -1.5620384027e-06 1.5620384027e-06
          -1.6511506488e-05 -1.4228454359e-06 4.9126129012e-06 -1.7906005232e-05 -4.6194240645e-06 -4.6194240645e-06
          -1.6511506488e-05 -4.9126129012e-06 -1.4228454359e-06 -1.5235793502e-05 -4.3728836144e-06 9.7520768634e-20
          -1.6511506488e-05 -4.9126129012e-06 1.4228454359e-06 -1.7906005232e-05 -4.6194240645e-06 4.6194240645e-06
          -8.8693725347e-06 2.2419119723e-06 -2.2419119723e-06 -8.1629385167e-06 2.3824813512e-06 -6.9262875916e-07
          -7.4800722605e-06 2.1324503764e-06 5.0609229835e-20 -8.1629385167e-06 2.3824813512e-06 6.9262875916e-07
          -8.8693725347e-06 2.2419119723e-06 2.2419119723e-06 -8.1629385167e-06 6.9262875916e-07 -2.3824813512e-06
          -7.5888856165e-06 7.5831169774e-07 -7.5831169774e-07 -6.9757239807e-06 5.8539457986e-07 -1.0320117716e-19
          -7.5888856165e-06 7.5831169774e-07 7.5831169774e-07 -8.1629385167e-06 6.9262875916e-07 2.3824813512e-06
          -7.4800722605e-06 2.9762053822e-19 -2.1324503764e-06 -6.9757239807e-06 2.0672867178e-19 -5.8539457986e-07
          -6.4375560157e-06 -1.5599566291e-19 -5.6386200016e-20 -6.9757239807e-06 9.9368249112e-20 5.8539457986e-07
          -7.4800722605e-06 -3.9009247545e-19 2.1324503764e-06 -8.1629385167e-06 -6.9262875916e-07 -2.3824813512e-06
          -7.5888856165e-06 -7.5831169774e-07 -7.5831169774e-07 -6.9757239807e-06 -5.8539457986e-07 -3.9740293266e-19
          -7.5888856165e-06 -7.5831169774e-07 7.5831169774e-07 -8.1629385167e-06 -6.9262875916e-07 2.3824813512e-06
          -8.8693725347e-06 -2.2419119723e-06 -2.2419119723e-06 -8.1629385167e-06 -2.3824813512e-06 -6.9262875916e-07
          -7.4800722605e-06 -2.1324503764e-06 6.0433082071e-20 -8.1629385167e-06 -2.3824813512e-06 6.9262875916e-07
          -8.8693725347e-06 -2.2419119723e-06 2.2419119723e-06 -4.0735235127e-06 1.0081781076e-06 -1.0081781076e-06
          -3.7419798097e-06 1.0710995357e-06 -3.1233855794e-07 -3.4090745324e-06 9.6297062457e-07 -4.3432453351e-20
          -3.7419798097e-06 1.0710995357e-06 3.1233855794e-07 -4.0735235127e-06 1.0081781076e-06 1.0081781076e-06
          -3.7419798097e-06 3.1233855794e-07 -1.0710995357e-06 -3.4861681243e-06 3.4141409169e-07 -3.4141409169e-07
          -3.190860712e-06 2.631827607e-07 3.5314474385e-20 -3.4861681243e-06 3.4141409169e-07 3.4141409169e-07
          -3.7419798097e-06 3.1233855794e-07 1.0710995357e-06 -3.4090745324e-06 3.7279358434e-20 -9.6297062457e-07
          -3.190860712e-06 -1.5492178229e-19 -2.631827607e-07 -2.9345658002e-06 2.9357060158e-20 2.129131189e-19
          -3.190860712e-06 4.6723082027e-20 2.631827607e-07 -3.4090745324e-06 1.746182434e-19 9.6297062457e-07
          -3.7419798097e-06 -3.1233855794e-07 -1.0710995357e-06 -3.4861681243e-06 -3.4141409169e-07 -3.4141409169e-07
          -3.190860712e-06 -2.631827607e-07 -6.1034356207e-19 -3.4861681243e-06 -3.4141409169e-07 3.4141409169e-07
          -3.7419798097e-06 -3.1233855794e-07 1.0710995357e-06 -4.0735235127e-06 -1.0081781076e-06 -1.0081781076e-06
          -3.7419798097e-06 -1.0710995357e-06 -3.1233855794e-07 -3.4090745324e-06 -9.6297062457e-07 -1.7168493833e-19
          -3.7419798097e-06 -1.0710995357e-06 3.1233855794e-07 -4.0735235127e-06 -1.0081781076e-06 1.0081781076e-06
          -1.7442392271e-06 4.2130446439e-07 -4.2130446439e-07 -1.5987076756e-06 4.4785902252e-07 -1.3056800372e-07
          -1.4491935186e-06 4.041808582e-07 1.6026681181e-19 -1.5987076756e-06 4.4785902252e-07 1.3056800372e-07
          -1.7442392271e-06 4.2130446439e-07 4.2130446439e-07 -1.5987076756e-06 1.3056800372e-07 -4.4785902252e-07
          -1.4918350362e-06 1.4273858154e-07 -1.4273858154e-07 -1.3607461848e-06 1.0968499642e-07 -1.1827172058e-20
          -1.4918350362e-06 1.4273858154e-07 1.4273858154e-07 -1.5987076756e-06 1.3056800372e-07 4.4785902252e-07
          -1.4491935186e-06 8.2352429847e-20 -4.041808582e-07 -1.3607461848e-06 1.5134870739e-19 -1.0968499642e-07