<?xml version="1.0"?>
<VTKFile type="UnstructuredGrid" version="0.1" byte_order="LittleEndian" compressor="vtkZLibDataCompressor">
  <UnstructuredGrid>
    <Piece NumberOfPoints="525" NumberOfCells="525">
      <PointData>
        <DataArray type="Float64" Name="Damage" format="ascii" RangeMin="0" RangeMax="0">
          0 0 0 0 0 0
          0 0 0 0 0 0
          0 0 0 0 0 0
          0 0 0 0 0 0
          0 0 0 0 0 0
          0 0 0 0 0 0
          0 0 0 0 0 0
          0 0 0 0 0 0
          0 0 0 0 0 0
          0 0 0 0 0 0
          0 0 0 0 0 0
          0 0 0 0 0 0
          0 0 0 0 0 0
          0 0 0 0 0 0
          0 0 0 0 0 0
          0 0 0 0 0 0
          0 0 0 0 0 0
          0 0 0 0 0 0
          0 0 0 0 0 0
          0 0 0 0 0 0
          0 0 0 0 0 0
          0 0 0 0 0 0
          0 0 0 0 0 0
          0 0 0 0 0 0
          0 0 0 0 0 0
          0 0 0 0 0 0
          0 0 0 0 0 0
          0 0 0 0 0 0
          0 0 0 0 0 0
          0 0 0 0 0 0
          0 0 0 0 0 0
          0 0 0 0 0 0
          0 0 0 0 0 0
          0 0 0 0 0 0
          0 0 0 0 0 0
          0 0 0 0 0 0
          0 0 0 0 0 0
          0 0 0 0 0 0
          0 0 0 0 0 0
          0 0 0 0 0 0
          0 0 0 0 0 0
          0 0 0 0 0 0
          0 0 0 0 0 0
          0 0 0 0 0 0
          0 0 0 0 0 0
          0 0 0 0 0 0
          0 0 0 0 0 0
          0 0 0 0 0 0
          0 0 0 0 0 0
          0 0 0 0 0 0
          0 0 0 0 0 0
          0 0 0 0 0 0
          0 0 0 0 0 0
          0 0 0 0 0 0
          0 0 0 0 0 0
          0 0 0 0 0 0
          0 0 0 0 0 0
          0 0 0 0 0 0
          0 0 0 0 0 0
          0 0 0 0 0 0
          0 0 0 0 0 0
          0 0 0 0 0 0
          0 0 0 0 0 0
          0 0 0 0 0 0
          0 0 0 0 0 0
          0 0 0 0 0 0
          0 0 0 0 0 0
          0 0 0 0 0 0
          0 0 0 0 0 0
          0 0 0 0 0 0
          0 0 0 0 0 0
          0 0 0 0 0 0
          0 0 0 0 0 0
          0 0 0 0 0 0
          0 0 0 0 0 0
          0 0 0 0 0 0
          0 0 0 0 0 0
          0 0 0 0 0 0
          0 0 0 0 0 0
          0 0 0 0 0 0
          0 0 0 0 0 0
          0 0 0 0 0 0
          0 0 0 0 0 0
          0 0 0 0 0 0
          0 0 0 0 0 0
          0 0 0 0 0 0
          0 0 0 0 0 0
          0 0 0
        </DataArray>
        <DataArray type="Float64" Name="Dilatation" format="ascii" RangeMin="-0.0037533924895" RangeMax="0.013612091054">
          0.00063325329971 -0.0017812174192 0.00130068331 -0.0017812174192 0.00063325329971 -0.0017812174192
          -0.0028581712538 -0.0012420143928 -0.0028581712538 -0.0017812174192 0.00130068331 -0.0012420143928
          0.0001752254006 -0.0012420143928 0.00130068331 -0.0017812174192 -0.0028581712538 -0.0012420143928
          -0.0028581712538 -0.0017812174192 0.00063325329971 -0.0017812174192 0.00130068331 -0.0017812174192
          0.00063325329971 0.00039177507903 -0.00020697108087 0.00046170076333 -0.00020697108087 0.00039177507903
          -0.00020697108087 -0.00069419267498 -0.00045564996773 -0.00069419267498 -0.00020697108087 0.00046170076333
          -0.00045564996773 -0.0002310641628 -0.00045564996773 0.00046170076333 -0.00020697108087 -0.00069419267498
          -0.00045564996773 -0.00069419267498 -0.00020697108087 0.00039177507903 -0.00020697108087 0.00046170076333
          -0.00020697108087 0.00039177507903 -0.0025836022063 -0.00052505943378 -0.0006734942734 -0.00052505943378
          -0.0025836022063 -0.00052505943378 5.0938559845e-05 -5.1904400488e-05 5.0938559845e-05 -0.00052505943378
          -0.0006734942734 -5.1904400488e-05 -0.00081415468208 -5.1904400488e-05 -0.0006734942734 -0.00052505943378
          5.0938559845e-05 -5.1904400488e-05 5.0938559845e-05 -0.00052505943378 -0.0025836022063 -0.00052505943378
          -0.0006734942734 -0.00052505943378 -0.0025836022063 -0.0037533924895 -0.00070063382881 -0.0013283850881
          -0.00070063382881 -0.0037533924895 -0.00070063382881 -0.00044760442906 -0.00088726042241 -0.00044760442906
          -0.00070063382881 -0.0013283850881 -0.00088726042241 -0.0016012155223 -0.00088726042241 -0.0013283850881
          -0.00070063382881 -0.00044760442906 -0.00088726042241 -0.00044760442906 -0.00070063382881 -0.0037533924895
          -0.00070063382881 -0.0013283850881 -0.00070063382881 -0.0037533924895 -0.0036625611759 -0.001332521489
          -0.0018837903635 -0.001332521489 -0.0036625611759 -0.001332521489 -0.0014353035907 -0.0016544876581
          -0.0014353035907 -0.001332521489 -0.0018837903635 -0.0016544876581 -0.0019072076258 -0.0016544876581
          -0.0018837903635 -0.001332521489 -0.0014353035907 -0.0016544876581 -0.0014353035907 -0.001332521489
          -0.0036625611759 -0.001332521489 -0.0018837903635 -0.001332521489 -0.0036625611759 0.0010276709769
          0.0014106297953 0.00071772830294 0.0014106297953 0.0010276709769 0.0014106297953 0.00065009231194
          0.00030448810668 0.00065009231194 0.0014106297953 0.00071772830294 0.00030448810668 7.8187507509e-05
          0.00030448810668 0.00071772830294 0.0014106297953 0.00065009231194 0.00030448810668 0.00065009231194
          0.0014106297953 0.0010276709769 0.0014106297953 0.00071772830294 0.0014106297953 0.0010276709769
          0.0034710022167 0.0029121463015 0.0025935541998 0.0029121463015 0.0034710022167 0.0029121463015
          0.0024572164816 0.002219792338 0.0024572164816 0.0029121463015 0.0025935541998 0.002219792338
          0.0021592058634 0.002219792338 0.0025935541998 0.0029121463015 0.0024572164816 0.002219792338
          0.0024572164816 0.0029121463015 0.0034710022167 0.0029121463015 0.0025935541998 0.0029121463015
          0.0034710022167 0.0044059494484 0.0036061674584 0.0033169599035 0.0036061674584 0.0044059494484
          0.0036061674584 0.0038277822647 0.0032611777564 0.0038277822647 0.0036061674584 0.0033169599035
          0.0032611777564 0.0028021741048 0.0032611777564 0.0033169599035 0.0036061674584 0.0038277822647
          0.0032611777564 0.0038277822647 0.0036061674584 0.0044059494484 0.0036061674584 0.0033169599035
          0.0036061674584 0.0044059494484 0.0041725054577 0.0041023298609 0.0037278740273 0.0041023298609
          0.0041725054577 0.0041023298609 0.0053441413818 0.004302354263 0.0053441413818 0.0041023298609
          0.0037278740273 0.004302354263 0.0031721614141 0.004302354263 0.0037278740273 0.0041023298609
          0.0053441413818 0.004302354263 0.0053441413818 0.0041023298609 0.0041725054577 0.0041023298609
          0.0037278740273 0.0041023298609 0.0041725054577 0.0029401977613 0.0037842689498 0.003324618453
          0.0037842689498 0.0029401977613 0.0037842689498 0.0060526684726 0.0046793187394 0.0060526684726
          0.0037842689498 0.003324618453 0.0046793187394 0.003005611118 0.0046793187394 0.003324618453
          0.0037842689498 0.0060526684726 0.0046793187394 0.0060526684726 0.0037842689498 0.0029401977613
          0.0037842689498 0.003324618453 0.0037842689498 0.0029401977613 0.0027589909242 0.0041185482206
          0.0034783791504 0.0041185482206 0.0027589909242 0.0041185482206 0.006796383269 0.0051766592206
          0.006796383269 0.0041185482206 0.0034783791504 0.0051766592206 0.0031359256076 0.0051766592206
          0.0034783791504 0.0041185482206 0.006796383269 0.0051766592206 0.006796383269 0.0041185482206
          0.0027589909242 0.0041185482206 0.0034783791504 0.0041185482206 0.0027589909242 0.003513814384
          0.0049463055939 0.0041276878304 0.0049463055939 0.003513814384 0.0049463055939 0.0074852305988
          0.0057664454786 0.0074852305988 0.0049463055939 0.0041276878304 0.0057664454786 0.0036140068953
          0.0057664454786 0.0041276878304 0.0049463055939 0.0074852305988 0.0057664454786 0.0074852305988
          0.0049463055939 0.003513814384 0.0049463055939 0.0041276878304 0.0049463055939 0.003513814384
          0.0044543157814 0.0056256959935 0.0047050162809 0.0056256959935 0.0044543157814 0.0056256959935
          0.0076585719514 0.0060071774454 0.0076585719514 0.0056256959935 0.0047050162809 0.0060071774454
          0.0039880300074 0.0060071774454 0.0047050162809 0.0056256959935 0.0076585719514 0.0060071774454
          0.0076585719514 0.0056256959935 0.0044543157814 0.0056256959935 0.0047050162809 0.0056256959935
          0.0044543157814 0.0048817760128 0.0056607343491 0.0047541783448 0.0056607343491 0.0048817760128
          0.0056607343491 0.0070667716735 0.0056276668869 0.0070667716735 0.0056607343491 0.0047541783448
          0.0056276668869 0.0039312069571 0.0056276668869 0.0047541783448 0.0056607343491 0.0070667716735
          0.0056276668869 0.0070667716735 0.0056607343491 0.0048817760128 0.0056607343491 0.0047541783448
          0.0056607343491 0.0048817760128 0.0044184940555 0.0048191611137 0.0040408710853 0.0048191611137
          0.0044184940555 0.0048191611137 0.0056540845445 0.0045293533193 0.0056540845445 0.0048191611137
          0.0040408710853 0.0045293533193 0.0032458357613 0.0045293533193 0.0040408710853 0.0048191611137
          0.0056540845445 0.0045293533193 0.0056540845445 0.0048191611137 0.0044184940555 0.0048191611137
          0.0040408710853 0.0048191611137 0.0044184940555 0.0033554741849 0.003567136256 0.002994878204
          0.003567136256 0.0033554741849 0.003567136256 0.0040217964189 0.0032192491541 0.0040217964189
          0.003567136256 0.002994878204 0.0032192491541 0.0023341400026 0.0032192491541 0.002994878204
          0.003567136256 0.0040217964189 0.0032192491541 0.0040217964189 0.003567136256 0.0033554741849
          0.003567136256 0.002994878204 0.003567136256 0.0033554741849 0.0024537477645 0.0024539876301
          0.0020656794127 0.0024539876301 0.0024537477645 0.0024539876301 0.0025127005234 0.0019897414039
          0.0025127005234 0.0024539876301 0.0020656794127 0.0019897414039 0.0014205583907 0.0019897414039
          0.0020656794127 0.0024539876301 0.0025127005234 0.0019897414039 0.0025127005234 0.0024539876301
          0.0024537477645 0.0024539876301 0.0020656794127 0.0024539876301 0.0024537477645 0.0020284749266
          0.0019970080838 0.0018499586894 0.0019970080838 0.0020284749266 0.0019970080838 0.0019887061274
          0.0017899216758 0.0019887061274 0.0019970080838 0.0018499586894 0.0017899216758 0.0015443550715
          0.0017899216758 0.0018499586894 0.0019970080838 0.0019887061274 0.0017899216758 0.0019887061274
          0.0019970080838 0.0020284749266 0.0019970080838 0.0018499586894 0.0019970080838 0.0020284749266
          0.013612091054 0.010222286392 0.008591953992 0.010222286392 0.013612091054 0.010222286392
          0.0063786606713 0.006941360084 0.0063786606713 0.010222286392 0.008591953992 0.006941360084
          0.0099833253972 0.006941360084 0.008591953992 0.010222286392 0.0063786606713 0.006941360084
          0.0063786606713 0.010222286392 0.013612091054 0.010222286392 0.008591953992 0.010222286392
          0.013612091054 0.0021194616978 0.0018575366146 0.005203104442 0.0018575366146 0.0021194616978
          0.0018575366146 -0.002023634293 -0.00086541687911 -0.002023634293 0.0018575366146 0.005203104442
          -0.00086541687911 -0.0012285793414 -0.00086541687911 0.005203104442 0.0018575366146 -0.002023634293
          -0.00086541687911 -0.002023634293 0.0018575366146 0.0021194616978 0.0018575366146 0.005203104442
          0.0018575366146 0.0021194616978 -0.0017433553868 -0.0021351326224 0.0015484350377 -0.0021351326224
          -0.0017433553868 -0.0021351326224 -0.0015256176033 -0.00029702919569 -0.0015256176033 -0.0021351326224
          0.0015484350377 -0.00029702919569 0.0013635343619 -0.00029702919569 0.0015484350377 -0.0021351326224
          -0.0015256176033 -0.00029702919568 -0.0015256176033 -0.0021351326224 -0.0017433553868 -0.0021351326224
          0.0015484350377 -0.0021351326224 -0.0017433553868
        </DataArray>
        <DataArray type="Float64" Name="Displacement" NumberOfComponents="3" format="ascii" RangeMin="9.354340667e-06" RangeMax="0.00020893003255">
          -0.00016870381874 6.8805715722e-07 -6.8805715722e-07 -0.00016424435049 5.3798182259e-06 -6.5017407287e-06
          -0.00016482859067 -3.2427910003e-06 -7.0211713181e-20 -0.00016424435049 5.3798182259e-06 6.5017407287e-06
          -0.00016870381874 6.8805715722e-07 6.8805715722e-07 -0.00016424435049 6.5017407287e-06 -5.3798182259e-06
          -0.00017067996304 9.6737870181e-06 -9.6737870181e-06 -0.00017416784535 9.729796898e-06 -2.954788257e-20
          -0.00017067996304 9.6737870181e-06 9.6737870181e-06 -0.00016424435049 6.5017407287e-06 5.3798182259e-06
          -0.00016482859067 9.2502389559e-20 3.2427910003e-06 -0.00017416784535 3.5823338782e-19 -9.729796898e-06
          -0.00017603244452 2.1726473192e-19 -2.3770388108e-19 -0.00017416784535 -1.8940346884e-19 9.729796898e-06
          -0.00016482859067 -4.1446294015e-19 -3.2427910003e-06 -0.00016424435049 -6.5017407287e-06 -5.3798182259e-06
          -0.00017067996304 -9.6737870181e-06 -9.6737870181e-06 -0.00017416784535 -9.729796898e-06 -3.0367495792e-19
          -0.00017067996304 -9.6737870181e-06 9.6737870181e-06 -0.00016424435049 -6.5017407287e-06 5.3798182259e-06
          -0.00016870381874 -6.8805715722e-07 -6.8805715722e-07 -0.00016424435049 -5.3798182259e-06 -6.5017407287e-06
          -0.00016482859067 3.2427910003e-06 -1.3181450294e-19 -0.00016424435049 -5.3798182259e-06 6.5017407287e-06
          -0.00016870381874 -6.8805715722e-07 6.8805715722e-07 -0.00018154760451 -1.3293537888e-06 1.3293537888e-06
          -0.00016811943727 7.8450825196e-07 1.6023218273e-06 -0.00016365528983 -3.3391574163e-06 1.7971726615e-20
          -0.00016811943727 7.8450825196e-07 -1.6023218273e-06 -0.00018154760451 -1.3293537888e-06 -1.3293537888e-06
          -0.00016811943727 -1.6023218273e-06 -7.8450825196e-07 -0.0001583027766 1.622089578e-06 -1.622089578e-06
          -0.00015594437439 1.4781517411e-06 -1.7161010811e-19 -0.0001583027766 1.622089578e-06 1.622089578e-06
          -0.00016811943727 -1.6023218273e-06 7.8450825196e-07 -0.00016365528983 6.0415029689e-19 3.3391574163e-06
          -0.00015594437439 -4.7944654694e-20 -1.4781517411e-06 -0.00015297241471 -1.44622313e-19 8.6066286972e-20
          -0.00015594437439 3.6311228482e-20 1.4781517411e-06 -0.00016365528983 1.5114465499e-19 -3.3391574163e-06
          -0.00016811943727 1.6023218273e-06 -7.8450825196e-07 -0.0001583027766 -1.622089578e-06 -1.622089578e-06
          -0.00015594437439 -1.4781517411e-06 -2.3312273375e-19 -0.0001583027766 -1.622089578e-06 1.622089578e-06
          -0.00016811943727 1.6023218273e-06 7.8450825196e-07 -0.00018154760451 1.3293537888e-06 1.3293537888e-06
          -0.00016811943727 -7.8450825196e-07 1.6023218273e-06 -0.00016365528983 3.3391574163e-06 6.8680829816e-20
          -0.00016811943727 -7.8450825196e-07 -1.6023218273e-06 -0.00018154760451 1.3293537888e-06 -1.3293537888e-06
          -0.00018995747356 -7.031167498e-07 7.031167498e-07 -0.00016867212914 -3.7082290328e-06 6.3227633629e-06
          -0.00016302222473 -5.2559864948e-06 -9.2992617283e-20 -0.00016867212914 -3.7082290328e-06 -6.3227633629e-06
          -0.00018995747356 -7.031167498e-07 -7.031167498e-07 -0.00016867212914 -6.3227633629e-06 3.7082290328e-06
          -0.00014487646122 -5.5393637018e-06 5.5393637018e-06 -0.00014005466944 -8.2665331762e-06 -4.4707855416e-20
          -0.00014487646122 -5.5393637018e-06 -5.5393637018e-06 -0.00016867212914 -6.3227633629e-06 -3.7082290328e-06
          -0.00016302222473 -2.3144202864e-19 5.2559864948e-06 -0.00014005466944 -1.5937601605e-19 8.2665331762e-06
          -0.00013318040817 9.1861046725e-20 -4.5771787605e-19 -0.00014005466944 -2.3902203216e-19 -8.2665331762e-06
          -0.00016302222473 -1.0536287004e-19 -5.2559864948e-06 -0.00016867212914 6.3227633629e-06 3.7082290328e-06
          -0.00014487646122 5.5393637018e-06 5.5393637018e-06 -0.00014005466944 8.2665331762e-06 -1.3017685692e-19
          -0.00014487646122 5.5393637018e-06 -5.5393637018e-06 -0.00016867212914 6.3227633629e-06 -3.7082290328e-06
          -0.00018995747356 7.031167498e-07 7.031167498e-07 -0.00016867212914 3.7082290328e-06 6.3227633629e-06
          -0.00016302222473 5.2559864948e-06 -1.7827868167e-19 -0.00016867212914 3.7082290328e-06 -6.3227633629e-06
          -0.00018995747356 7.031167498e-07 -7.031167498e-07 -0.00020000585341 -3.0475724035e-06 3.0475724035e-06
          -0.00018099563424 -1.0372903354e-05 7.4472836066e-06 -0.00017362899493 -8.7139438025e-06 2.0824036619e-19
          -0.00018099563424 -1.0372903354e-05 -7.4472836066e-06 -0.00020000585341 -3.0475724035e-06 -3.0475724035e-06
          -0.00018099563424 -7.4472836066e-06 1.0372903354e-05 -0.00016369322285 -9.376873567e-06 9.376873567e-06
          -0.00015717362124 -1.0206977207e-05 -1.9039320083e-19 -0.00016369322285 -9.376873567e-06 -9.376873567e-06
          -0.00018099563424 -7.4472836066e-06 -1.0372903354e-05 -0.00017362899493 -2.0662918505e-19 8.7139438025e-06
          -0.00015717362124 1.2517266391e-20 1.0206977207e-05 -0.00015113090146 6.2010541221e-20 -3.3156006583e-19
          -0.00015717362124 3.0229643857e-19 -1.0206977207e-05 -0.00017362899493 -3.0051655966e-20 -8.7139438025e-06
          -0.00018099563424 7.4472836066e-06 1.0372903354e-05 -0.00016369322285 9.376873567e-06 9.376873567e-06
          -0.00015717362124 1.0206977207e-05 -5.9264743466e-20 -0.00016369322285 9.376873567e-06 -9.376873567e-06
          -0.00018099563424 7.4472836066e-06 -1.0372903354e-05 -0.00020000585341 3.0475724035e-06 3.0475724035e-06
          -0.00018099563424 1.0372903354e-05 7.4472836066e-06 -0.00017362899493 8.7139438025e-06 -5.8107721549e-21
          -0.00018099563424 1.0372903354e-05 -7.4472836066e-06 -0.00020000585341 3.0475724035e-06 -3.0475724035e-06
          -0.00020254514685 -2.8615536056e-06 2.8615536056e-06 -0.0001962614017 -1.0383420207e-05 5.2197710105e-06
          -0.00019170796611 -7.1744467891e-06 -4.8437672238e-20 -0.0001962614017 -1.0383420207e-05 -5.2197710105e-06
          -0.00020254514685 -2.8615536056e-06 -2.8615536056e-06 -0.0001962614017 -5.2197710105e-06 1.0383420207e-05
          -0.00018615199187 -8.6796709298e-06 8.6796709298e-06 -0.00018181547806 -8.5064517679e-06 -5.655109913e-20
          -0.00018615199187 -8.6796709298e-06 -8.6796709298e-06 -0.0001962614017 -5.2197710105e-06 -1.0383420207e-05
          -0.00019170796611 -1.8462272067e-20 7.1744467891e-06 -0.00018181547806 1.556701134e-19 8.5064517679e-06
          -0.00017974777252 -1.1091790248e-19 3.1329222854e-19 -0.00018181547806 2.4231803957e-19 -8.5064517679e-06
          -0.00019170796611 -1.8246863732e-20 -7.1744467891e-06 -0.0001962614017 5.2197710105e-06 1.0383420207e-05
          -0.00018615199187 8.6796709298e-06 8.6796709298e-06 -0.00018181547806 8.5064517679e-06 3.4582568221e-19
          -0.00018615199187 8.6796709298e-06 -8.6796709298e-06 -0.0001962614017 5.2197710105e-06 -1.0383420207e-05
          -0.00020254514685 2.8615536056e-06 2.8615536056e-06 -0.0001962614017 1.0383420207e-05 5.2197710105e-06
          -0.00019170796611 7.1744467891e-06 1.0787807827e-19 -0.0001962614017 1.0383420207e-05 -5.2197710105e-06
          -0.00020254514685 2.8615536056e-06 -2.8615536056e-06 -0.0001893860095 -4.6985360643e-06 4.6985360643e-06
          -0.00019356448898 -9.1988761403e-06 3.2470673892e-06 -0.00019316881605 -5.929374661e-06 1.4550839385e-19
          -0.00019356448898 -9.1988761403e-06 -3.2470673892e-06 -0.0001893860095 -4.6985360643e-06 -4.6985360643e-06
          -0.00019356448898 -3.2470673892e-06 9.1988761403e-06 -0.00019312718302 -6.4047851157e-06 6.4047851157e-06
          -0.00019254820751 -5.6440779562e-06 5.5999963427e-20 -0.00019312718302 -6.4047851157e-06 -6.4047851157e-06
          -0.00019356448898 -3.2470673892e-06 -9.1988761403e-06 -0.00019316881605 -3.006355489e-19 5.929374661e-06
          -0.00019254820751 -4.4244624502e-20 5.6440779562e-06 -0.00019311004282 -2.3887810584e-19 7.9997538481e-20
          -0.00019254820751 -2.0904267795e-19 -5.6440779562e-06 -0.00019316881605 -2.3172824468e-19 -5.929374661e-06
          -0.00019356448898 3.2470673892e-06 9.1988761403e-06 -0.00019312718302 6.4047851157e-06 6.4047851157e-06
          -0.00019254820751 5.6440779562e-06 3.3708306392e-19 -0.00019312718302 6.4047851157e-06 -6.4047851157e-06
          -0.00019356448898 3.2470673892e-06 -9.1988761403e-06 -0.0001893860095 4.6985360643e-06 4.6985360643e-06
          -0.00019356448898 9.1988761403e-06 3.2470673892e-06 -0.00019316881605 5.929374661e-06 5.8635235791e-20
          -0.00019356448898 9.1988761403e-06 -3.2470673892e-06 -0.0001893860095 4.6985360643e-06 -4.6985360643e-06
          -0.00018102231178 -3.2738280549e-07 3.2738280549e-07 -0.00019257156056 -1.2929838277e-06 -1.2077838676e-06
          -0.0001957303525 -1.659832337e-07 -3.8749472435e-19 -0.00019257156056 -1.2929838277e-06 1.2077838676e-06
          -0.00018102231178 -3.2738280549e-07 -3.2738280549e-07 -0.00019257156056 1.2077838676e-06 1.2929838277e-06
          -0.00020150728928 -1.1074638496e-07 1.1074638496e-07 -0.00020462950621 5.1363617268e-07 -1.1610116907e-19
          -0.00020150728928 -1.1074638496e-07 -1.1074638496e-07 -0.00019257156056 1.2077838676e-06 -1.2929838277e-06
          -0.0001957303525 6.0497679208e-20 1.659832337e-07 -0.00020462950621 2.1882577675e-19 -5.1363617268e-07
          -0.00020893003255 -2.1239860465e-20 -1.5217968671e-19 -0.00020462950621 -2.2909663143e-19 5.1363617268e-07
          -0.0001957303525 5.1780652018e-21 -1.659832337e-07 -0.00019257156056 -1.2077838676e-06 1.2929838277e-06
          -0.00020150728928 1.1074638496e-07 1.1074638496e-07 -0.00020462950621 -5.1363617268e-07 3.4326982367e-19
          -0.00020150728928 1.1074638496e-07 -1.1074638496e-07 -0.00019257156056 -1.2077838676e-06 -1.2929838277e-06
          -0.00018102231178 3.2738280549e-07 3.2738280549e-07 -0.00019257156056 1.2929838277e-06 -1.2077838676e-06
          -0.0001957303525 1.659832337e-07 -2.785010138e-20 -0.00019257156056 1.2929838277e-06 1.2077838676e-06
          -0.00018102231178 3.2738280549e-07 -3.2738280549e-07 -0.00016852064313 5.4091072851e-06 -5.4091072851e-06
          -0.00018043484228 7.443673316e-06 -3.7649709971e-06 -0.00018539335545 6.3308613965e-06 -2.0121447747e-19
          -0.00018043484228 7.443673316e-06 3.7649709971e-06 -0.00016852064313 5.4091072851e-06 5.4091072851e-06
          -0.00018043484228 3.7649709971e-06 -7.443673316e-06 -0.00019073936677 4.0715841048e-06 -4.0715841048e-06
          -0.00019540702109 4.1724444246e-06 -1.4327416756e-19 -0.00019073936677 4.0715841048e-06 4.0715841048e-06
          -0.00018043484228 3.7649709971e-06 7.443673316e-06 -0.00018539335545 -7.5396621439e-20 -6.3308613965e-06
          -0.00019540702109 2.0177685922e-19 -4.1724444246e-06 -0.00020057694118 1.4249582018e-20 9.6296229995e-20
          -0.00019540702109 -2.6867880698e-20 4.1724444246e-06 -0.00018539335545 2.0999528527e-19 6.3308613965e-06
          -0.00018043484228 -3.7649709971e-06 -7.443673316e-06 -0.00019073936677 -4.0715841048e-06 -4.0715841048e-06
          -0.00019540702109 -4.1724444246e-06 2.926670107e-19 -0.00019073936677 -4.0715841048e-06 4.0715841048e-06
          -0.00018043484228 -3.7649709971e-06 7.443673316e-06 -0.00016852064313 -5.4091072851e-06 -5.4091072851e-06
          -0.00018043484228 -7.443673316e-06 -3.7649709971e-06 -0.00018539335545 -6.3308613965e-06 1.2375205489e-20
          -0.00018043484228 -7.443673316e-06 3.7649709971e-06 -0.00016852064313 -5.4091072851e-06 5.4091072851e-06
          -0.00015708718902 1.275201131e-05 -1.275201131e-05 -0.00016514349496 1.6083679678e-05 -5.8131986814e-06
          -0.00016951030477 1.3009970797e-05 -3.6353829419e-19 -0.00016514349496 1.6083679678e-05 5.8131986814e-06
          -0.00015708718902 1.275201131e-05 1.275201131e-05 -0.00016514349496 5.8131986814e-06 -1.6083679678e-05
          -0.00017254276895 7.1065705367e-06 -7.1065705367e-06 -0.00017661279445 6.3996340526e-06 -2.4215930278e-19
          -0.00017254276895 7.1065705367e-06 7.1065705367e-06 -0.00016514349496 5.8131986814e-06 1.6083679678e-05
          -0.00016951030477 1.7273782733e-19 -1.3009970797e-05 -0.00017661279445 -2.7577438958e-20 -6.3996340526e-06
          -0.00018071605915 1.0523000596e-19 2.2015166501e-19 -0.00017661279445 -9.3774933516e-20 6.3996340526e-06
          -0.00016951030477 -7.2756347204e-20 1.3009970797e-05 -0.00016514349496 -5.8131986814e-06 -1.6083679678e-05
          -0.00017254276895 -7.1065705367e-06 -7.1065705367e-06 -0.00017661279445 -6.3996340526e-06 -1.7557367125e-19
          -0.00017254276895 -7.1065705367e-06 7.1065705367e-06 -0.00016514349496 -5.8131986814e-06 1.6083679678e-05
          -0.00015708718902 -1.275201131e-05 -1.275201131e-05 -0.00016514349496 -1.6083679678e-05 -5.8131986814e-06
          -0.00016951030477 -1.3009970797e-05 2.9582142356e-20 -0.00016514349496 -1.6083679678e-05 5.8131986814e-06
          -0.00015708718902 -1.275201131e-05 1.275201131e-05 -0.00014509393251 1.9415262158e-05 -1.9415262158e-05
          -0.00014817401483 2.3106241985e-05 -7.2499703731e-06 -0.00015057260247 1.893395587e-05 5.3800071692e-19
          -0.00014817401483 2.3106241985e-05 7.2499703731e-06 -0.00014509393251 1.9415262158e-05 1.9415262158e-05
          -0.00014817401483 7.2499703731e-06 -2.3106241985e-05 -0.00015098930146 8.9472934406e-06 -8.9472934406e-06
          -0.00015314527966 7.5623065577e-06 2.6202286786e-19 -0.00015098930146 8.9472934406e-06 8.9472934406e-06
          -0.00014817401483 7.2499703731e-06 2.3106241985e-05 -0.00015057260247 1.5397294298e-19 -1.893395587e-05
          -0.00015314527966 6.2861963419e-20 -7.5623065577e-06 -0.0001550968083 -3.6747499899e-20 1.9032519488e-20
          -0.00015314527966 3.2463592618e-19 7.5623065577e-06 -0.00015057260247 4.8843586498e-20 1.893395587e-05
          -0.00014817401483 -7.2499703731e-06 -2.3106241985e-05 -0.00015098930146 -8.9472934406e-06 -8.9472934406e-06
          -0.00015314527966 -7.5623065577e-06 1.0521858077e-20 -0.00015098930146 -8.9472934406e-06 8.9472934406e-06
          -0.00014817401483 -7.2499703731e-06 2.3106241985e-05 -0.00014509393251 -1.9415262158e-05 -1.9415262158e-05
          -0.00014817401483 -2.3106241985e-05 -7.2499703731e-06 -0.00015057260247 -1.893395587e-05 1.2531130476e-19
          -0.00014817401483 -2.3106241985e-05 7.2499703731e-06 -0.00014509393251 -1.9415262158e-05 1.9415262158e-05
          -0.00012785594479 2.249076051e-05 -2.249076051e-05 -0.00012681978663 2.5811791592e-05 -7.6027750025e-06
          -0.00012701316089 2.1492402669e-05 3.8612600161e-20 -0.00012681978663 2.5811791592e-05 7.6027750025e-06
          -0.00012785594479 2.249076051e-05 2.249076051e-05 -0.00012681978663 7.6027750025e-06 -2.5811791592e-05
          -0.00012574023816 9.223740165e-06 -9.223740165e-06 -0.00012579720182 7.5048640101e-06 4.2327470252e-19
          -0.00012574023816 9.223740165e-06 9.223740165e-06 -0.00012681978663 7.6027750025e-06 2.5811791592e-05
          -0.00012701316089 -2.4443245134e-19 -2.1492402669e-05 -0.00012579720182 7.751997542e-20 -7.5048640101e-06
          -0.00012562356591 -4.5878723334e-20 2.6924106989e-19 -0.00012579720182 -2.7395381022e-19 7.5048640101e-06
          -0.00012701316089 -1.7849452378e-20 2.1492402669e-05 -0.00012681978663 -7.6027750025e-06 -2.5811791592e-05
          -0.00012574023816 -9.223740165e-06 -9.223740165e-06 -0.00012579720182 -7.5048640101e-06 9.3823761252e-20
          -0.00012574023816 -9.223740165e-06 9.223740165e-06 -0.00012681978663 -7.6027750025e-06 2.5811791592e-05
          -0.00012785594479 -2.249076051e-05 -2.249076051e-05 -0.00012681978663 -2.5811791592e-05 -7.6027750025e-06
          -0.00012701316089 -2.1492402669e-05 6.0771470792e-20 -0.00012681978663 -2.5811791592e-05 7.6027750025e-06
          -0.00012785594479 -2.249076051e-05 2.249076051e-05 -0.00010611400922 2.2019880087e-05 -2.2019880087e-05
          -0.00010289810267 2.4643607678e-05 -7.0846152316e-06 -0.0001014674806 2.0822245647e-05 -9.1401679694e-20
          -0.00010289810267 2.4643607678e-05 7.0846152316e-06 -0.00010611400922 2.2019880087e-05 2.2019880087e-05
          -0.00010289810267 7.0846152316e-06 -2.4643607678e-05 -9.9761457579e-05 8.4000207955e-06 -8.4000207955e-06
          -9.8311364595e-05 6.6885434284e-06 8.3179676103e-20 -9.9761457579e-05 8.4000207955e-06 8.4000207955e-06
          -0.00010289810267 7.0846152316e-06 2.4643607678e-05 -0.0001014674806 2.9111030257e-19 -2.0822245647e-05
          -9.8311364595e-05 -2.0823984848e-19 -6.6885434284e-06 -9.675174107e-05 -2.1200818578e-19 1.9028497714e-19
          -9.8311364595e-05 -1.5575744597e-19 6.6885434284e-06 -0.0001014674806 3.3943495302e-19 2.0822245647e-05
          -0.00010289810267 -7.0846152316e-06 -2.4643607678e-05 -9.9761457579e-05 -8.4000207955e-06 -8.4000207955e-06
          -9.8311364595e-05 -6.6885434284e-06 5.7033992021e-20 -9.9761457579e-05 -8.4000207955e-06 8.4000207955e-06
          -0.00010289810267 -7.0846152316e-06 2.4643607678e-05 -0.00010611400922 -2.2019880087e-05 -2.2019880087e-05
          -0.00010289810267 -2.4643607678e-05 -7.0846152316e-06 -0.0001014674806 -2.0822245647e-05 -2.6438339071e-19
          -0.00010289810267 -2.4643607678e-05 7.0846152316e-06 -0.00010611400922 -2.2019880087e-05 2.2019880087e-05
          -8.2026744732e-05 1.8787064221e-05 -1.8787064221e-05 -7.8244929941e-05 2.0688947373e-05 -5.8912239751e-06
          -7.6054410275e-05 1.7698846033e-05 2.0503356016e-19 -7.8244929941e-05 2.0688947373e-05 5.8912239751e-06
          -8.2026744732e-05 1.8787064221e-05 1.8787064221e-05 -7.8244929941e-05 5.8912239751e-06 -2.0688947373e-05
          -7.4605500803e-05 6.8514936535e-06 -6.8514936535e-06 -7.2478565266e-05 5.3889371566e-06 1.286723349e-19
          -7.4605500803e-05 6.8514936535e-06 6.8514936535e-06 -7.8244929941e-05 5.8912239751e-06 2.0688947373e-05
          -7.6054410275e-05 7.9005333489e-20 -1.7698846033e-05 -7.2478565266e-05 -5.8853510676e-20 -5.3889371566e-06