<?xml version="1.0"?>
<VTKFile type="UnstructuredGrid" version="0.1" byte_order="LittleEndian" compressor="vtkZLibDataCompressor">
  <UnstructuredGrid>
    <Piece NumberOfPoints="525" NumberOfCells="525">
      <PointData>
        <DataArray type="Float64" Name="Damage" format="ascii" RangeMin="0" RangeMax="0">
          0 0 0 0 0 0
          0 0 0 0 0 0
          0 0 0 0 0 0
          0 0 0 0 0 0
          0 0 0 0 0 0
          0 0 0 0 0 0
          0 0 0 0 0 0
          0 0 0 0 0 0
          0 0 0 0 0 0
          0 0 0 0 0 0
          0 0 0 0 0 0
          0 0 0 0 0 0
          0 0 0 0 0 0
          0 0 0 0 0 0
          0 0 0 0 0 0
          0 0 0 0 0 0
          0 0 0 0 0 0
          0 0 0 0 0 0
          0 0 0 0 0 0
          0 0 0 0 0 0
          0 0 0 0 0 0
          0 0 0 0 0 0
          0 0 0 0 0 0
          0 0 0 0 0 0
          0 0 0 0 0 0
          0 0 0 0 0 0
          0 0 0 0 0 0
          0 0 0 0 0 0
          0 0 0 0 0 0
          0 0 0 0 0 0
          0 0 0 0 0 0
          0 0 0 0 0 0
          0 0 0 0 0 0
          0 0 0 0 0 0
          0 0 0 0 0 0
          0 0 0 0 0 0
          0 0 0 0 0 0
          0 0 0 0 0 0
          0 0 0 0 0 0
          0 0 0 0 0 0
          0 0 0 0 0 0
          0 0 0 0 0 0
          0 0 0 0 0 0
          0 0 0 0 0 0
          0 0 0 0 0 0
          0 0 0 0 0 0
          0 0 0 0 0 0
          0 0 0 0 0 0
          0 0 0 0 0 0
          0 0 0 0 0 0
          0 0 0 0 0 0
          0 0 0 0 0 0
          0 0 0 0 0 0
          0 0 0 0 0 0
          0 0 0 0 0 0
          0 0 0 0 0 0
          0 0 0 0 0 0
          0 0 0 0 0 0
          0 0 0 0 0 0
          0 0 0 0 0 0
          0 0 0 0 0 0
          0 0 0 0 0 0
          0 0 0 0 0 0
          0 0 0 0 0 0
          0 0 0 0 0 0
          0 0 0 0 0 0
          0 0 0 0 0 0
          0 0 0 0 0 0
          0 0 0 0 0 0
          0 0 0 0 0 0
          0 0 0 0 0 0
          0 0 0 0 0 0
          0 0 0 0 0 0
          0 0 0 0 0 0
          0 0 0 0 0 0
          0 0 0 0 0 0
          0 0 0 0 0 0
          0 0 0 0 0 0
          0 0 0 0 0 0
          0 0 0 0 0 0
          0 0 0 0 0 0
          0 0 0 0 0 0
          0 0 0 0 0 0
          0 0 0 0 0 0
          0 0 0 0 0 0
          0 0 0 0 0 0
          0 0 0 0 0 0
          0 0 0
        </DataArray>
        <DataArray type="Float64" Name="Dilatation" format="ascii" RangeMin="-0.010769667597" RangeMax="0.010202426423">
          0.0012640502436 -0.00013634508441 0.00080721718613 -0.00013634508441 0.0012640502436 -0.00013634508441
          -0.0017585574767 -0.0011240144911 -0.0017585574767 -0.00013634508441 0.00080721718613 -0.0011240144911
          -0.00029507914295 -0.0011240144911 0.00080721718613 -0.00013634508441 -0.0017585574767 -0.0011240144911
          -0.0017585574767 -0.00013634508441 0.0012640502436 -0.00013634508441 0.00080721718613 -0.00013634508441
          0.0012640502436 0.0036913920829 0.00069752780832 0.00063116652563 0.00069752780832 0.0036913920829
          0.00069752780832 -0.0041976233387 -0.0015023767114 -0.0041976233387 0.00069752780832 0.00063116652563
          -0.0015023767114 0.00019423794453 -0.0015023767114 0.00063116652563 0.00069752780832 -0.0041976233387
          -0.0015023767114 -0.0041976233387 0.00069752780832 0.0036913920829 0.00069752780832 0.00063116652563
          0.00069752780832 0.0036913920829 0.00037433550828 -0.00086715125405 -0.0013003994084 -0.00086715125405
          0.00037433550828 -0.00086715125405 -0.0054202647324 -0.0021948580947 -0.0054202647324 -0.00086715125405
          -0.0013003994084 -0.0021948580947 -0.00071495582013 -0.0021948580947 -0.0013003994084 -0.00086715125405
          -0.0054202647324 -0.0021948580947 -0.0054202647324 -0.00086715125405 0.00037433550828 -0.00086715125405
          -0.0013003994084 -0.00086715125405 0.00037433550828 -0.0036024189505 -0.0021653810818 -0.0039710268677
          -0.0021653810818 -0.0036024189505 -0.0021653810818 -0.0036676775757 -0.002469441421 -0.0036676775757
          -0.0021653810818 -0.0039710268677 -0.002469441421 -0.001947257554 -0.002469441421 -0.0039710268677
          -0.0021653810818 -0.0036676775757 -0.002469441421 -0.0036676775757 -0.0021653810818 -0.0036024189505
          -0.0021653810818 -0.0039710268677 -0.0021653810818 -0.0036024189505 -0.010769667597 -0.0056577951083
          -0.0061370792265 -0.0056577951083 -0.010769667597 -0.0056577951083 -0.0042481275753 -0.0041488873517
          -0.0042481275753 -0.0056577951083 -0.0061370792265 -0.0041488873517 -0.0041312368314 -0.0041488873517
          -0.0061370792265 -0.0056577951083 -0.0042481275753 -0.0041488873517 -0.0042481275753 -0.0056577951083
          -0.010769667597 -0.0056577951083 -0.0061370792265 -0.0056577951083 -0.010769667597 -0.0093366036107
          -0.0051410241035 -0.0052717656543 -0.0051410241035 -0.0093366036107 -0.0051410241035 -0.0033902336454
          -0.0044524023595 -0.0033902336454 -0.0051410241035 -0.0052717656543 -0.0044524023595 -0.0046783425514
          -0.0044524023595 -0.0052717656543 -0.0051410241035 -0.0033902336454 -0.0044524023595 -0.0033902336454
          -0.0051410241035 -0.0093366036107 -0.0051410241035 -0.0052717656543 -0.0051410241035 -0.0093366036107
          -0.008492856033 -0.0057070029495 -0.0044004498037 -0.0057070029495 -0.008492856033 -0.0057070029495
          -0.0052964171688 -0.0055996184043 -0.0052964171688 -0.0057070029495 -0.0044004498037 -0.0055996184043
          -0.0048386382411 -0.0055996184043 -0.0044004498037 -0.0057070029495 -0.0052964171688 -0.0055996184043
          -0.0052964171688 -0.0057070029495 -0.008492856033 -0.0057070029495 -0.0044004498037 -0.0057070029495
          -0.008492856033 -0.0054213877572 -0.0059677158204 -0.0044626098454 -0.0059677158204 -0.0054213877572
          -0.0059677158204 -0.0073617742837 -0.0067970413715 -0.0073617742837 -0.0059677158204 -0.0044626098454
          -0.0067970413715 -0.0050854581451 -0.0067970413715 -0.0044626098454 -0.0059677158204 -0.0073617742837
          -0.0067970413715 -0.0073617742837 -0.0059677158204 -0.0054213877572 -0.0059677158204 -0.0044626098454
          -0.0059677158204 -0.0054213877572 -0.0047573974533 -0.0071311563928 -0.0054194658491 -0.0071311563928
          -0.0047573974533 -0.0071311563928 -0.0098324357457 -0.0078749923944 -0.0098324357457 -0.0071311563928
          -0.0054194658491 -0.0078749923944 -0.0053470432925 -0.0078749923944 -0.0054194658491 -0.0071311563928
          -0.0098324357457 -0.0078749923944 -0.0098324357457 -0.0071311563928 -0.0047573974533 -0.0071311563928
          -0.0054194658491 -0.0071311563928 -0.0047573974533 -0.0042866717187 -0.0069967546062 -0.0058017595388
          -0.0069967546062 -0.0042866717187 -0.0069967546062 -0.0096609623307 -0.0074471765475 -0.0096609623307
          -0.0069967546062 -0.0058017595388 -0.0074471765475 -0.0050068115504 -0.0074471765475 -0.0058017595388
          -0.0069967546062 -0.0096609623307 -0.0074471765475 -0.0096609623307 -0.0069967546062 -0.0042866717187
          -0.0069967546062 -0.0058017595388 -0.0069967546062 -0.0042866717187 -0.0044879593887 -0.0058534769932
          -0.0052729471481 -0.0058534769932 -0.0044879593887 -0.0058534769932 -0.0076041042826 -0.0058558908088
          -0.0076041042826 -0.0058534769932 -0.0052729471481 -0.0058558908088 -0.0041069056062 -0.0058558908088
          -0.0052729471481 -0.0058534769932 -0.0076041042826 -0.0058558908088 -0.0076041042826 -0.0058534769932
          -0.0044879593887 -0.0058534769932 -0.0052729471481 -0.0058534769932 -0.0044879593887 -0.0056033701486
          -0.0054645901132 -0.0051625336664 -0.0054645901132 -0.0056033701486 -0.0054645901132 -0.0060219947957
          -0.0048708526933 -0.0060219947957 -0.0054645901132 -0.0051625336664 -0.0048708526933 -0.0038118539789
          -0.0048708526933 -0.0051625336664 -0.0054645901132 -0.0060219947957 -0.0048708526933 -0.0060219947957
          -0.0054645901132 -0.0056033701486 -0.0054645901132 -0.0051625336664 -0.0054645901132 -0.0056033701486
          -0.0045869448158 -0.0038798957781 -0.0037246684096 -0.0038798957781 -0.0045869448158 -0.0038798957781
          -0.0039587026938 -0.0033687371044 -0.0039587026938 -0.0038798957781 -0.0037246684096 -0.0033687371044
          -0.0027880827401 -0.0033687371044 -0.0037246684096 -0.0038798957781 -0.0039587026938 -0.0033687371044
          -0.0039587026938 -0.0038798957781 -0.0045869448158 -0.0038798957781 -0.0037246684096 -0.0038798957781
          -0.0045869448158 -0.0031303366753 -0.0025847588701 -0.0023193872128 -0.0025847588701 -0.0031303366753
          -0.0025847588701 -0.0026546794279 -0.002255131835 -0.0026546794279 -0.0025847588701 -0.0023193872128
          -0.002255131835 -0.0017741246454 -0.002255131835 -0.0023193872128 -0.0025847588701 -0.0026546794279
          -0.002255131835 -0.0026546794279 -0.0025847588701 -0.0031303366753 -0.0025847588701 -0.0023193872128
          -0.0025847588701 -0.0031303366753 -0.0011942184358 -0.0013463829416 -0.0010835209127 -0.0013463829416
          -0.0011942184358 -0.0013463829416 -0.0017694864284 -0.0014161096281 -0.0017694864284 -0.0013463829416
          -0.0010835209127 -0.0014161096281 -0.00089051117272 -0.0014161096281 -0.0010835209127 -0.0013463829416
          -0.0017694864284 -0.0014161096281 -0.0017694864284 -0.0013463829416 -0.0011942184358 -0.0013463829416
          -0.0010835209127 -0.0013463829416 -0.0011942184358 0.00028678745164 -0.00038615226866 -0.00024562375376
          -0.00038615226866 0.00028678745164 -0.00038615226866 -0.00098445184897 -0.00070526640434 -0.00098445184897
          -0.00038615226866 -0.00024562375376 -0.00070526640434 -0.00022683359753 -0.00070526640434 -0.00024562375376
          -0.00038615226866 -0.00098445184897 -0.00070526640434 -0.00098445184897 -0.00038615226866 0.00028678745164
          -0.00038615226866 -0.00024562375376 -0.00038615226866 0.00028678745164 0.00036042570267 -0.00011432389895
          3.3118323958e-05 -0.00011432389895 0.00036042570267 -0.00011432389895 -0.000546354081 -0.00033643125956
          -0.000546354081 -0.00011432389895 3.3118323957e-05 -0.00033643125956 -1.5902391834e-05 -0.00033643125956
          3.3118323958e-05 -0.00011432389895 -0.000546354081 -0.00033643125956 -0.000546354081 -0.00011432389895
          0.00036042570267 -0.00011432389895 3.3118323957e-05 -0.00011432389895 0.00036042570267 0.00073926561444
          -2.756278112e-05 -0.00039011304168 -2.756278112e-05 0.00073926561444 -2.756278112e-05 -0.00069173680563
          -0.00088164523524 -0.00069173680563 -2.756278112e-05 -0.00039011304168 -0.00088164523524 -0.00090105166697
          -0.00088164523524 -0.00039011304168 -2.7562781119e-05 -0.00069173680563 -0.00088164523524 -0.00069173680563
          -2.756278112e-05 0.00073926561444 -2.756278112e-05 -0.00039011304168 -2.7562781119e-05 0.00073926561444
          0.004303450244 0.0039433906791 0.0050711589523 0.0039433906791 0.004303450244 0.0039433906791
          0.004485358404 0.0051556621262 0.004485358404 0.0039433906791 0.0050711589523 0.0051556621262
          0.010202426423 0.0051556621262 0.0050711589523 0.0039433906791 0.004485358404 0.0051556621262
          0.004485358404 0.0039433906791 0.004303450244 0.0039433906791 0.0050711589523 0.0039433906791
          0.004303450244 -0.0029576330717 -6.8063790269e-05 0.0031720223193 -6.8063790269e-05 -0.0029576330717
          -6.8063790269e-05 0.0038567429323 0.0038175287628 0.0038567429323 -6.8063790269e-05 0.0031720223193
          0.0038175287628 0.0038931098895 0.0038175287628 0.0031720223193 -6.8063790269e-05 0.0038567429323
          0.0038175287628 0.0038567429323 -6.8063790269e-05 -0.0029576330717 -6.8063790269e-05 0.0031720223193
          -6.8063790269e-05 -0.0029576330717 -0.0043318946824 -0.00045457176034 0.0016135862953 -0.00045457176034
          -0.0043318946824 -0.00045457176034 0.001125449532 -0.00029475745465 0.001125449532 -0.00045457176034
          0.0016135862953 -0.00029475745465 -1.9048321278e-05 -0.00029475745465 0.0016135862953 -0.00045457176034
          0.001125449532 -0.00029475745465 0.001125449532 -0.00045457176034 -0.0043318946824 -0.00045457176034
          0.0016135862953 -0.00045457176034 -0.0043318946824
        </DataArray>
        <DataArray type="Float64" Name="Displacement" NumberOfComponents="3" format="ascii" RangeMin="0.0001602709188" RangeMax="0.00037223514002">
          -0.00018504196234 -5.500147113e-06 5.500147113e-06 -0.00018000847516 -5.0269204533e-06 -1.3490123889e-07
          -0.00017619812885 -6.8721814871e-06 -1.0494803396e-19 -0.00018000847516 -5.0269204533e-06 1.3490123889e-07
          -0.00018504196234 -5.500147113e-06 -5.500147113e-06 -0.00018000847516 1.3490123889e-07 5.0269204533e-06
          -0.00017094727098 1.7413106949e-06 -1.7413106949e-06 -0.00017174064187 1.9187650318e-06 -3.069644696e-20
          -0.00017094727098 1.7413106949e-06 1.7413106949e-06 -0.00018000847516 1.3490123889e-07 -5.0269204533e-06
          -0.00017619812885 -2.6894498697e-20 6.8721814871e-06 -0.00017174064187 1.9416312819e-19 -1.9187650318e-06
          -0.0001709470639 2.6231834509e-19 -6.4145437451e-19 -0.00017174064187 4.7513220385e-19 1.9187650318e-06
          -0.00017619812885 -1.2325474983e-19 -6.8721814871e-06 -0.00018000847516 -1.3490123889e-07 5.0269204533e-06
          -0.00017094727098 -1.7413106949e-06 -1.7413106949e-06 -0.00017174064187 -1.9187650318e-06 -1.5679434144e-19
          -0.00017094727098 -1.7413106949e-06 1.7413106949e-06 -0.00018000847516 -1.3490123889e-07 -5.0269204533e-06
          -0.00018504196234 5.500147113e-06 5.500147113e-06 -0.00018000847516 5.0269204533e-06 -1.3490123889e-07
          -0.00017619812885 6.8721814871e-06 1.3073587194e-19 -0.00018000847516 5.0269204533e-06 1.3490123889e-07
          -0.00018504196234 5.500147113e-06 -5.500147113e-06 -0.00019202056241 -8.5712296675e-06 8.5712296675e-06
          -0.00019495577575 -5.3549845682e-06 1.3520568576e-06 -0.00019552773792 -4.4473979508e-06 -1.7526795631e-19
          -0.00019495577575 -5.3549845682e-06 -1.3520568576e-06 -0.00019202056241 -8.5712296675e-06 -8.5712296675e-06
          -0.00019495577575 -1.3520568576e-06 5.3549845682e-06 -0.00018492960961 1.0795001701e-05 -1.0795001701e-05
          -0.00018928406309 7.9785030701e-06 -1.5017659629e-19 -0.00018492960961 1.0795001701e-05 1.0795001701e-05
          -0.00019495577575 -1.3520568576e-06 -5.3549845682e-06 -0.00019552773792 -1.10399216e-19 4.4473979508e-06
          -0.00018928406309 5.1338092756e-19 -7.9785030701e-06 -0.0001873508086 3.0007300672e-20 -4.791990662e-19
          -0.00018928406309 3.529407254e-20 7.9785030701e-06 -0.00019552773792 1.8497382674e-19 -4.4473979508e-06
          -0.00019495577575 1.3520568576e-06 5.3549845682e-06 -0.00018492960961 -1.0795001701e-05 -1.0795001701e-05
          -0.00018928406309 -7.9785030701e-06 -4.2763856461e-19 -0.00018492960961 -1.0795001701e-05 1.0795001701e-05
          -0.00019495577575 1.3520568576e-06 -5.3549845682e-06 -0.00019202056241 8.5712296675e-06 8.5712296675e-06
          -0.00019495577575 5.3549845682e-06 1.3520568576e-06 -0.00019552773792 4.4473979508e-06 3.2287857263e-19
          -0.00019495577575 5.3549845682e-06 -1.3520568576e-06 -0.00019202056241 8.5712296675e-06 -8.5712296675e-06
          -0.00018220333948 -2.3061290672e-06 2.3061290672e-06 -0.00018064533634 -1.6650814178e-06 2.0150123524e-06
          -0.00018307192093 1.0347652578e-06 2.2957078397e-20 -0.00018064533634 -1.6650814178e-06 -2.0150123524e-06
          -0.00018220333948 -2.3061290672e-06 -2.3061290672e-06 -0.00018064533634 -2.0150123524e-06 1.6650814178e-06
          -0.00017098215133 1.2400530313e-05 -1.2400530313e-05 -0.0001771260496 6.8488864887e-06 -1.908795485e-19
          -0.00017098215133 1.2400530313e-05 1.2400530313e-05 -0.00018064533634 -2.0150123524e-06 -1.6650814178e-06
          -0.00018307192093 -5.8946944922e-19 -1.0347652578e-06 -0.0001771260496 1.0150803764e-19 -6.8488864887e-06
          -0.00018118687324 -2.764695897e-19 -3.5261723748e-19 -0.0001771260496 -4.6037077436e-20 6.8488864887e-06
          -0.00018307192093 7.6166562245e-20 1.0347652578e-06 -0.00018064533634 2.0150123524e-06 1.6650814178e-06
          -0.00017098215133 -1.2400530313e-05 -1.2400530313e-05 -0.0001771260496 -6.8488864887e-06 6.9469320557e-20
          -0.00017098215133 -1.2400530313e-05 1.2400530313e-05 -0.00018064533634 2.0150123524e-06 -1.6650814178e-06
          -0.00018220333948 2.3061290672e-06 2.3061290672e-06 -0.00018064533634 1.6650814178e-06 2.0150123524e-06
          -0.00018307192093 -1.0347652578e-06 -3.2102455918e-19 -0.00018064533634 1.6650814178e-06 -2.0150123524e-06
          -0.00018220333948 2.3061290672e-06 -2.3061290672e-06 -0.00018194733429 3.2315247223e-06 -3.2315247223e-06
          -0.00017952705408 2.1311926684e-06 5.766174144e-06 -0.00017747347712 6.5794706105e-06 2.883568345e-19
          -0.00017952705408 2.1311926684e-06 -5.766174144e-06 -0.00018194733429 3.2315247223e-06 3.2315247223e-06
          -0.00017952705408 -5.766174144e-06 -2.1311926684e-06 -0.00017269959483 4.3600310428e-06 -4.3600310428e-06
          -0.0001734727353 2.3642197157e-06 -2.0804744462e-19 -0.00017269959483 4.3600310428e-06 4.3600310428e-06
          -0.00017952705408 -5.766174144e-06 2.1311926684e-06 -0.00017747347712 8.5737469529e-20 -6.5794706105e-06
          -0.0001734727353 2.8628055212e-19 -2.3642197157e-06 -0.00017791295193 -9.6758450083e-20 -4.5274776252e-19
          -0.0001734727353 4.7764942804e-19 2.3642197157e-06 -0.00017747347712 -2.7630860261e-19 6.5794706105e-06
          -0.00017952705408 5.766174144e-06 -2.1311926684e-06 -0.00017269959483 -4.3600310428e-06 -4.3600310428e-06
          -0.0001734727353 -2.3642197157e-06 -2.718467641e-19 -0.00017269959483 -4.3600310428e-06 4.3600310428e-06
          -0.00017952705408 5.766174144e-06 2.1311926684e-06 -0.00018194733429 -3.2315247223e-06 -3.2315247223e-06
          -0.00017952705408 -2.1311926684e-06 5.766174144e-06 -0.00017747347712 -6.5794706105e-06 -2.5562646331e-19
          -0.00017952705408 -2.1311926684e-06 -5.766174144e-06 -0.00018194733429 -3.2315247223e-06 3.2315247223e-06
          -0.00020285814415 9.5082058582e-06 -9.5082058582e-06 -0.00020041267815 1.2386074779e-06 2.1643863484e-06
          -0.00019283570591 4.0255286055e-06 -4.3052219554e-19 -0.00020041267815 1.2386074779e-06 -2.1643863484e-06
          -0.00020285814415 9.5082058582e-06 9.5082058582e-06 -0.00020041267815 -2.1643863484e-06 -1.2386074779e-06
          -0.00018700896743 -2.6511457061e-06 2.6511457061e-06 -0.00018224627769 -2.5629795899e-06 -4.505125844e-19
          -0.00018700896743 -2.6511457061e-06 -2.6511457061e-06 -0.00020041267815 -2.1643863484e-06 1.2386074779e-06
          -0.00019283570591 -6.7865324448e-20 -4.0255286055e-06 -0.00018224627769 2.1380335644e-19 2.5629795899e-06
          -0.0001865214163 4.551805695e-20 -3.291569364e-20 -0.00018224627769 3.935144911e-19 -2.5629795899e-06
          -0.00019283570591 3.7292965936e-19 4.0255286055e-06 -0.00020041267815 2.1643863484e-06 -1.2386074779e-06
          -0.00018700896743 2.6511457061e-06 2.6511457061e-06 -0.00018224627769 2.5629795899e-06 4.0500402386e-20
          -0.00018700896743 2.6511457061e-06 -2.6511457061e-06 -0.00020041267815 2.1643863484e-06 1.2386074779e-06
          -0.00020285814415 -9.5082058582e-06 -9.5082058582e-06 -0.00020041267815 -1.2386074779e-06 2.1643863484e-06
          -0.00019283570591 -4.0255286055e-06 -1.4899000752e-19 -0.00020041267815 -1.2386074779e-06 -2.1643863484e-06
          -0.00020285814415 -9.5082058582e-06 9.5082058582e-06 -0.00020638231066 3.4083975739e-07 -3.4083975739e-07
          -0.00020943062665 -9.278696105e-06 3.5248327037e-06 -0.000199016994 -6.1630316227e-06 1.1783710846e-19
          -0.00020943062665 -9.278696105e-06 -3.5248327037e-06 -0.00020638231066 3.4083975739e-07 3.4083975739e-07
          -0.00020943062665 -3.5248327037e-06 9.278696105e-06 -0.00020078530985 -1.1698352371e-05 1.1698352371e-05
          -0.00019287126482 -8.6403955047e-06 -5.5228043662e-20 -0.00020078530985 -1.1698352371e-05 -1.1698352371e-05
          -0.00020943062665 -3.5248327037e-06 -9.278696105e-06 -0.000199016994 3.6281989089e-19 6.1630316227e-06
          -0.00019287126482 -1.9960563757e-19 8.6403955047e-06 -0.00019208498561 -6.9216439856e-20 -2.4755108082e-19
          -0.00019287126482 -1.0618224193e-19 -8.6403955047e-06 -0.000199016994 -2.1651078496e-19 -6.1630316227e-06
          -0.00020943062665 3.5248327037e-06 9.278696105e-06 -0.00020078530985 1.1698352371e-05 1.1698352371e-05
          -0.00019287126482 8.6403955047e-06 5.4856420507e-19 -0.00020078530985 1.1698352371e-05 -1.1698352371e-05
          -0.00020943062665 3.5248327037e-06 -9.278696105e-06 -0.00020638231066 -3.4083975739e-07 -3.4083975739e-07
          -0.00020943062665 9.278696105e-06 3.5248327037e-06 -0.000199016994 6.1630316227e-06 1.7385259701e-19
          -0.00020943062665 9.278696105e-06 -3.5248327037e-06 -0.00020638231066 -3.4083975739e-07 3.4083975739e-07
          -0.00022076676274 -6.9565296859e-06 6.9565296859e-06 -0.00022461881326 -1.7254346036e-05 9.9632290518e-07
          -0.00021567156512 -1.5747899503e-05 -9.540156451e-21 -0.00022461881326 -1.7254346036e-05 -9.9632290518e-07
          -0.00022076676274 -6.9565296859e-06 -6.9565296859e-06 -0.00022461881326 -9.9632290519e-07 1.7254346036e-05
          -0.0002141664016 -1.1711724106e-05 1.1711724106e-05 -0.00020647789166 -8.1159887959e-06 3.5802539543e-19
          -0.0002141664016 -1.1711724106e-05 -1.1711724106e-05 -0.00022461881326 -9.9632290519e-07 -1.7254346036e-05
          -0.00021567156512 -1.3160009155e-19 1.5747899503e-05 -0.00020647789166 -2.5759527921e-19 8.1159887959e-06
          -0.00020569995909 -2.6230691243e-21 -1.7655940635e-19 -0.00020647789166 -5.1237874795e-19 -8.1159887959e-06
          -0.00021567156512 6.3831784963e-20 -1.5747899503e-05 -0.00022461881326 9.9632290518e-07 1.7254346036e-05
          -0.0002141664016 1.1711724106e-05 1.1711724106e-05 -0.00020647789166 8.1159887959e-06 1.7938864993e-19
          -0.0002141664016 1.1711724106e-05 -1.1711724106e-05 -0.00022461881326 9.9632290518e-07 -1.7254346036e-05
          -0.00022076676274 6.9565296859e-06 6.9565296859e-06 -0.00022461881326 1.7254346036e-05 9.9632290519e-07
          -0.00021567156512 1.5747899503e-05 1.9570471171e-19 -0.00022461881326 1.7254346036e-05 -9.9632290519e-07
          -0.00022076676274 6.9565296859e-06 -6.9565296859e-06 -0.00023404008639 -1.6632445449e-05 1.6632445449e-05
          -0.00024312503367 -2.188236373e-05 2.4106116614e-06 -0.00023834748464 -2.017931386e-05 7.0251091613e-20
          -0.00024312503367 -2.188236373e-05 -2.4106116614e-06 -0.00023404008639 -1.6632445449e-05 -1.6632445449e-05
          -0.00024312503367 -2.4106116614e-06 2.188236373e-05 -0.00024003563613 -1.0294137188e-05 1.0294137188e-05
          -0.00023499988348 -6.6611910306e-06 -8.7696596094e-20 -0.00024003563613 -1.0294137188e-05 -1.0294137188e-05
          -0.00024312503367 -2.4106116614e-06 -2.188236373e-05 -0.00023834748464 -3.1057996771e-19 2.017931386e-05
          -0.00023499988348 1.5315806724e-19 6.6611910306e-06 -0.00023379437006 -3.1161290591e-19 9.5788253679e-20
          -0.00023499988348 -4.3549169308e-19 -6.6611910306e-06 -0.00023834748464 -1.3226550621e-19 -2.017931386e-05
          -0.00024312503367 2.4106116614e-06 2.188236373e-05 -0.00024003563613 1.0294137188e-05 1.0294137188e-05
          -0.00023499988348 6.6611910306e-06 3.1288581414e-19 -0.00024003563613 1.0294137188e-05 -1.0294137188e-05
          -0.00024312503367 2.4106116614e-06 -2.188236373e-05 -0.00023404008639 1.6632445449e-05 1.6632445449e-05
          -0.00024312503367 2.188236373e-05 2.4106116614e-06 -0.00023834748464 2.017931386e-05 3.199639103e-19
          -0.00024312503367 2.188236373e-05 -2.4106116614e-06 -0.00023404008639 1.6632445449e-05 -1.6632445449e-05
          -0.00025968760306 -1.9145477842e-05 1.9145477842e-05 -0.00027114533038 -2.0221268078e-05 1.9461967219e-06
          -0.0002714202334 -1.8695510191e-05 1.1767929527e-19 -0.00027114533038 -2.0221268078e-05 -1.9461967219e-06
          -0.00025968760306 -1.9145477842e-05 -1.9145477842e-05 -0.00027114533038 -1.9461967219e-06 2.0221268078e-05
          -0.00027450978011 -4.4820490698e-06 4.4820490698e-06 -0.00027387825804 -2.8010903043e-06 1.7570156363e-19
          -0.00027450978011 -4.4820490698e-06 -4.4820490698e-06 -0.00027114533038 -1.9461967219e-06 -2.0221268078e-05
          -0.0002714202334 -2.2736697224e-19 1.8695510191e-05 -0.00027387825804 -2.670929458e-19 2.8010903043e-06
          -0.00027455549034 1.6775478494e-19 -8.3149822551e-20 -0.00027387825804 3.0870883451e-19 -2.8010903043e-06
          -0.0002714202334 -1.714579039e-19 -1.8695510191e-05 -0.00027114533038 1.9461967219e-06 2.0221268078e-05
          -0.00027450978011 4.4820490698e-06 4.4820490698e-06 -0.00027387825804 2.8010903043e-06 2.8005998483e-19
          -0.00027450978011 4.4820490698e-06 -4.4820490698e-06 -0.00027114533038 1.9461967219e-06 -2.0221268078e-05
          -0.00025968760306 1.9145477842e-05 1.9145477842e-05 -0.00027114533038 2.0221268078e-05 1.9461967219e-06
          -0.0002714202334 1.8695510191e-05 4.2069833309e-20 -0.00027114533038 2.0221268078e-05 -1.9461967219e-06
          -0.00025968760306 1.9145477842e-05 -1.9145477842e-05 -0.000281496595 -1.7584241737e-05 1.7584241737e-05
          -0.00028824340871 -1.5895140355e-05 3.3516129443e-06 -0.00029158486874 -1.4163807278e-05 4.1571384483e-20
          -0.00028824340871 -1.5895140355e-05 -3.3516129443e-06 -0.000281496595 -1.7584241737e-05 -1.7584241737e-05
          -0.00028824340871 -3.3516129443e-06 1.5895140355e-05 -0.00029180002103 -1.9970837026e-06 1.9970837026e-06
          -0.00029395227445 -1.5853834852e-06 2.6523425212e-19 -0.00029180002103 -1.9970837026e-06 -1.9970837026e-06
          -0.00028824340871 -3.3516129443e-06 -1.5895140355e-05 -0.00029158486874 -3.3997988461e-19 1.4163807278e-05
          -0.00029395227445 1.1044212818e-19 1.5853834852e-06 -0.00029556543586 1.0014713496e-19 5.0697328869e-21
          -0.00029395227445 -1.9463746391e-19 -1.5853834852e-06 -0.00029158486874 -6.4631003004e-19 -1.4163807278e-05
          -0.00028824340871 3.3516129443e-06 1.5895140355e-05 -0.00029180002103 1.9970837026e-06 1.9970837026e-06
          -0.00029395227445 1.5853834852e-06 1.0812788347e-19 -0.00029180002103 1.9970837026e-06 -1.9970837026e-06
          -0.00028824340871 3.3516129443e-06 -1.5895140355e-05 -0.000281496595 1.7584241737e-05 1.7584241737e-05
          -0.00028824340871 1.5895140355e-05 3.3516129443e-06 -0.00029158486874 1.4163807278e-05 3.9447177759e-20
          -0.00028824340871 1.5895140355e-05 -3.3516129443e-06 -0.000281496595 1.7584241737e-05 -1.7584241737e-05
          -0.00030653770053 -1.2617069536e-05 1.2617069536e-05 -0.00030934788489 -1.1382718591e-05 3.9703743481e-06
          -0.00031287580293 -9.4619774124e-06 -1.5051689742e-19 -0.00030934788489 -1.1382718591e-05 -3.9703743481e-06
          -0.00030653770053 -1.2617069536e-05 -1.2617069536e-05 -0.00030934788489 -3.9703743481e-06 1.1382718591e-05
          -0.00031361723986 -1.6321108082e-06 1.6321108082e-06 -0.00031621259811 -1.956507285e-06 -2.6961574667e-19
          -0.00031361723986 -1.6321108082e-06 -1.6321108082e-06 -0.00030934788489 -3.9703743481e-06 -1.1382718591e-05
          -0.00031287580293 1.0878863377e-19 9.4619774124e-06 -0.00031621259811 -3.989659799e-19 1.956507285e-06
          -0.00031791950385 -5.6551519596e-19 1.5579114346e-19 -0.00031621259811 5.977790817e-21 -1.956507285e-06
          -0.00031287580293 -1.12783382e-19 -9.4619774124e-06 -0.00030934788489 3.9703743481e-06 1.1382718591e-05
          -0.00031361723986 1.6321108082e-06 1.6321108082e-06 -0.00031621259811 1.956507285e-06 -2.9885338624e-19
          -0.00031361723986 1.6321108082e-06 -1.6321108082e-06 -0.00030934788489 3.9703743481e-06 -1.1382718591e-05
          -0.00030653770053 1.2617069536e-05 1.2617069536e-05 -0.00030934788489 1.1382718591e-05 3.9703743481e-06
          -0.00031287580293 9.4619774124e-06 1.7666464456e-19 -0.00030934788489 1.1382718591e-05 -3.9703743481e-06
          -0.00030653770053 1.2617069536e-05 -1.2617069536e-05 -0.00032913466261 -7.0775668012e-06 7.0775668012e-06
          -0.00032822932916 -7.3770094308e-06 3.7981268384e-06 -0.00033000779414 -5.4997179591e-06 2.1141934323e-19
          -0.00032822932916 -7.3770094308e-06 -3.7981268384e-06 -0.00032913466261 -7.0775668012e-06 -7.0775668012e-06
          -0.00032822932916 -3.7981268384e-06 7.3770094308e-06 -0.00032881681898 -2.5644391495e-06 2.5644391495e-06
          -0.00032996818286 -2.950055266e-06 8.7360372196e-20 -0.00032881681898 -2.5644391495e-06 -2.5644391495e-06
          -0.00032822932916 -3.7981268384e-06 -7.3770094308e-06 -0.00033000779414 -6.2348392877e-20 5.4997179591e-06
          -0.00032996818286 1.6731819332e-19 2.950055266e-06 -0.00033068512132 1.8857621393e-19 3.9417170558e-19
          -0.00032996818286 4.3077176724e-19 -2.950055266e-06 -0.00033000779414 8.5214623121e-20 -5.4997179591e-06
          -0.00032822932916 3.7981268384e-06 7.3770094308e-06 -0.00032881681898 2.5644391495e-06 2.5644391495e-06
          -0.00032996818286 2.950055266e-06 -4.8874050303e-19 -0.00032881681898 2.5644391495e-06 -2.5644391495e-06
          -0.00032822932916 3.7981268384e-06 -7.3770094308e-06 -0.00032913466261 7.0775668012e-06 7.0775668012e-06
          -0.00032822932916 7.3770094308e-06 3.7981268384e-06 -0.00033000779414 5.4997179591e-06 -2.0740410546e-19
          -0.00032822932916 7.3770094308e-06 -3.7981268384e-06 -0.00032913466261 7.0775668012e-06 -7.0775668012e-06
          -0.00034251009596 -4.9881446223e-06 4.9881446223e-06 -0.00034049207916 -6.5531495907e-06 3.343209633e-06
          -0.0003404423201 -4.7837151289e-06 4.1804551825e-19 -0.00034049207916 -6.5531495907e-06 -3.343209633e-06