<?xml version="1.0"?>
<VTKFile type="UnstructuredGrid" version="0.1" byte_order="LittleEndian" compressor="vtkZLibDataCompressor">
  <UnstructuredGrid>
    <Piece NumberOfPoints="525" NumberOfCells="525">
      <PointData>
        <DataArray type="Float64" Name="Damage" format="ascii" RangeMin="0" RangeMax="0">
          0 0 0 0 0 0
          0 0 0 0 0 0
          0 0 0 0 0 0
          0 0 0 0 0 0
          0 0 0 0 0 0
          0 0 0 0 0 0
          0 0 0 0 0 0
          0 0 0 0 0 0
          0 0 0 0 0 0
          0 0 0 0 0 0
          0 0 0 0 0 0
          0 0 0 0 0 0
          0 0 0 0 0 0
          0 0 0 0 0 0
          0 0 0 0 0 0
          0 0 0 0 0 0
          0 0 0 0 0 0
          0 0 0 0 0 0
          0 0 0 0 0 0
          0 0 0 0 0 0
          0 0 0 0 0 0
          0 0 0 0 0 0
          0 0 0 0 0 0
          0 0 0 0 0 0
          0 0 0 0 0 0
          0 0 0 0 0 0
          0 0 0 0 0 0
          0 0 0 0 0 0
          0 0 0 0 0 0
          0 0 0 0 0 0
          0 0 0 0 0 0
          0 0 0 0 0 0
          0 0 0 0 0 0
          0 0 0 0 0 0
          0 0 0 0 0 0
          0 0 0 0 0 0
          0 0 0 0 0 0
          0 0 0 0 0 0
          0 0 0 0 0 0
          0 0 0 0 0 0
          0 0 0 0 0 0
          0 0 0 0 0 0
          0 0 0 0 0 0
          0 0 0 0 0 0
          0 0 0 0 0 0
          0 0 0 0 0 0
          0 0 0 0 0 0
          0 0 0 0 0 0
          0 0 0 0 0 0
          0 0 0 0 0 0
          0 0 0 0 0 0
          0 0 0 0 0 0
          0 0 0 0 0 0
          0 0 0 0 0 0
          0 0 0 0 0 0
          0 0 0 0 0 0
          0 0 0 0 0 0
          0 0 0 0 0 0
          0 0 0 0 0 0
          0 0 0 0 0 0
          0 0 0 0 0 0
          0 0 0 0 0 0
          0 0 0 0 0 0
          0 0 0 0 0 0
          0 0 0 0 0 0
          0 0 0 0 0 0
          0 0 0 0 0 0
          0 0 0 0 0 0
          0 0 0 0 0 0
          0 0 0 0 0 0
          0 0 0 0 0 0
          0 0 0 0 0 0
          0 0 0 0 0 0
          0 0 0 0 0 0
          0 0 0 0 0 0
          0 0 0 0 0 0
          0 0 0 0 0 0
          0 0 0 0 0 0
          0 0 0 0 0 0
          0 0 0 0 0 0
          0 0 0 0 0 0
          0 0 0 0 0 0
          0 0 0 0 0 0
          0 0 0 0 0 0
          0 0 0 0 0 0
          0 0 0 0 0 0
          0 0 0 0 0 0
          0 0 0
        </DataArray>
        <DataArray type="Float64" Name="Dilatation" format="ascii" RangeMin="3.830188136e-12" RangeMax="0.011028016174">
          0.0052818562118 0.0068815062539 0.0057104972325 0.0068815062539 0.0052818562118 0.0068815062539
          0.01031959139 0.0089228287217 0.01031959139 0.0068815062539 0.0057104972325 0.0089228287217
          0.0069917809775 0.0089228287217 0.0057104972325 0.0068815062539 0.01031959139 0.0089228287217
          0.01031959139 0.0068815062539 0.0052818562118 0.0068815062539 0.0057104972325 0.0068815062539
          0.0052818562118 0.008820410909 0.0094295314505 0.008166041217 0.0094295314505 0.008820410909
          0.0094295314505 0.011028016174 0.0094816463441 0.011028016174 0.0094295314505 0.008166041217
          0.0094816463441 0.0075702543779 0.0094816463441 0.008166041217 0.0094295314505 0.011028016174
          0.0094816463441 0.011028016174 0.0094295314505 0.008820410909 0.0094295314505 0.008166041217
          0.0094295314505 0.008820410909 0.0094603276406 0.0091775114409 0.0078718093284 0.0091775114409
          0.0094603276406 0.0091775114409 0.0089864173997 0.0074498866807 0.0089864173997 0.0091775114409
          0.0078718093284 0.0074498866807 0.0060438995361 0.0074498866807 0.0078718093284 0.0091775114409
          0.0089864173997 0.0074498866807 0.0089864173997 0.0091775114409 0.0094603276406 0.0091775114409
          0.0078718093284 0.0091775114409 0.0094603276406 0.0057080877051 0.0055809398098 0.0048446450039
          0.0055809398098 0.0057080877051 0.0055809398098 0.0055212828093 0.0046842199188 0.0055212828093
          0.0055809398098 0.0048446450039 0.0046842199188 0.0039279083276 0.0046842199188 0.0048446450039
          0.0055809398098 0.0055212828093 0.0046842199188 0.0055212828093 0.0055809398098 0.0057080877051
          0.0055809398098 0.0048446450039 0.0055809398098 0.0057080877051 0.0025104088133 0.0023312197465
          0.0019953704839 0.0023312197465 0.0025104088133 0.0023312197465 0.0021764505006 0.0018237978551
          0.0021764505006 0.0023312197465 0.0019953704839 0.0018237978551 0.0014951441225 0.0018237978551
          0.0019953704839 0.0023312197465 0.0021764505006 0.0018237978551 0.0021764505006 0.0023312197465
          0.0025104088133 0.0023312197465 0.0019953704839 0.0023312197465 0.0025104088133 0.0010169400645
          0.00092947793224 0.00078877571806 0.00092947793224 0.0010169400645 0.00092947793224 0.00086366330587
          0.000721795521 0.00086366330587 0.00092947793224 0.00078877571806 0.000721795521 0.00060530983648
          0.000721795521 0.00078877571806 0.00092947793224 0.00086366330587 0.000721795521 0.00086366330587
          0.00092947793224 0.0010169400645 0.00092947793224 0.00078877571806 0.00092947793224 0.0010169400645
          0.00032296038275 0.00029940349925 0.00025635948356 0.00029940349925 0.00032296038275 0.00029940349925
          0.00028176184305 0.00023805358535 0.00028176184305 0.00029940349925 0.00025635948356 0.00023805358535
          0.00020064311298 0.00023805358535 0.00025635948356 0.00029940349925 0.00028176184305 0.00023805358535
          0.00028176184305 0.00029940349925 0.00032296038275 0.00029940349925 0.00025635948356 0.00029940349925
          0.00032296038275 9.4381101994e-05 8.3921443798e-05 7.0759199808e-05 8.3921443798e-05 9.4381101994e-05
          8.3921443798e-05 7.5984268744e-05 6.3350283777e-05 7.5984268744e-05 8.3921443798e-05 7.0759199808e-05
          6.3350283777e-05 5.2275509033e-05 6.3350283777e-05 7.0759199808e-05 8.3921443798e-05 7.5984268744e-05
          6.3350283777e-05 7.5984268744e-05 8.3921443798e-05 9.4381101994e-05 8.3921443798e-05 7.0759199808e-05
          8.3921443798e-05 9.4381101994e-05 2.5390724037e-05 2.223356732e-05 1.8626355233e-05 2.223356732e-05
          2.5390724037e-05 2.223356732e-05 2.0245745145e-05 1.6934194338e-05 2.0245745146e-05 2.223356732e-05
          1.8626355233e-05 1.6934194338e-05 1.4255727893e-05 1.6934194338e-05 1.8626355233e-05 2.223356732e-05
          2.0245745146e-05 1.6934194338e-05 2.0245745146e-05 2.223356732e-05 2.5390724037e-05 2.223356732e-05
          1.8626355233e-05 2.223356732e-05 2.5390724037e-05 5.8186588664e-06 5.1417348067e-06 4.3195309051e-06
          5.1417348066e-06 5.8186588663e-06 5.1417348067e-06 4.6773397798e-06 3.9096404814e-06 4.6773397799e-06
          5.1417348065e-06 4.319530905e-06 3.9096404814e-06 3.26161947e-06 3.9096404814e-06 4.319530905e-06
          5.1417348067e-06 4.6773397799e-06 3.9096404814e-06 4.6773397798e-06 5.1417348067e-06 5.8186588663e-06
          5.1417348066e-06 4.319530905e-06 5.1417348067e-06 5.8186588664e-06 1.30446408e-06 1.1091298933e-06
          9.201794767e-07 1.1091298933e-06 1.30446408e-06 1.1091298932e-06 9.8201178587e-07 8.1468218873e-07
          9.820117859e-07 1.1091298933e-06 9.2017947656e-07 8.1468218881e-07 6.7008225131e-07 8.1468218875e-07
          9.2017947664e-07 1.1091298932e-06 9.8201178585e-07 8.1468218869e-07 9.8201178584e-07 1.1091298932e-06
          1.3044640801e-06 1.1091298933e-06 9.2017947666e-07 1.1091298932e-06 1.3044640801e-06 2.6871118895e-07
          2.2383931115e-07 1.8425703061e-07 2.2383931123e-07 2.6871118891e-07 2.2383931118e-07 1.9894954033e-07
          1.6528213653e-07 1.9894954038e-07 2.238393112e-07 1.8425703068e-07 1.6528213658e-07 1.3801454688e-07
          1.6528213662e-07 1.8425703064e-07 2.2383931114e-07 1.9894954033e-07 1.6528213662e-07 1.9894954037e-07
          2.2383931121e-07 2.6871118854e-07 2.238393112e-07 1.8425703057e-07 2.2383931122e-07 2.6871118858e-07
          4.9336297597e-08 4.1482857509e-08 3.4186516302e-08 4.1482857537e-08 4.9336297562e-08 4.1482857582e-08
          3.6629623875e-08 3.0315408313e-08 3.662962381e-08 4.1482857486e-08 3.4186516243e-08 3.031540827e-08
          2.4978495902e-08 3.0315408266e-08 3.4186516259e-08 4.1482857512e-08 3.6629623856e-08 3.0315408264e-08
          3.6629623816e-08 4.1482857534e-08 4.9336297595e-08 4.1482857487e-08 3.4186516265e-08 4.1482857521e-08
          4.9336297623e-08 9.0336499698e-09 7.2973261301e-09 5.9484351677e-09 7.2973261265e-09 9.0336500112e-09
          7.2973260879e-09 6.307324506e-09 5.2004837764e-09 6.30732455e-09 7.2973260835e-09 5.9484351324e-09
          5.2004838078e-09 4.2410859195e-09 5.2004837843e-09 5.9484351573e-09 7.2973261699e-09 6.3073245288e-09
          5.2004837706e-09 6.3073245953e-09 7.2973261221e-09 9.0336499405e-09 7.2973261347e-09 5.9484351498e-09
          7.2973261689e-09 9.0336499601e-09 1.5302887634e-09 1.2061188045e-09 9.7448040115e-10 1.2061187507e-09
          1.5302888736e-09 1.2061187584e-09 1.0440758511e-09 8.5998371886e-10 1.0440758287e-09 1.2061187544e-09
          9.7448057022e-10 8.5998380061e-10 7.0947334057e-10 8.5998382611e-10 9.7448056558e-10 1.2061187932e-09
          1.044075837e-09 8.5998382554e-10 1.0440758459e-09 1.2061187821e-09 1.5302887994e-09 1.2061188644e-09
          9.7448059265e-10 1.2061186667e-09 1.5302888414e-09 2.4424356281e-10 1.9323521561e-10 1.553947482e-10
          1.9323520076e-10 2.4424358884e-10 1.9323522233e-10 1.6484418903e-10 1.3462133195e-10 1.648441083e-10
          1.932350416e-10 1.5539475998e-10 1.3462140695e-10 1.0907523521e-10 1.3462134216e-10 1.553948042e-10
          1.9323522329e-10 1.6484402617e-10 1.3462141786e-10 1.6484411515e-10 1.9323518402e-10 2.4424354221e-10
          1.9323523854e-10 1.5539475047e-10 1.9323523824e-10 2.4424358826e-10 4.8318169776e-11 3.7239813471e-11
          2.9431432958e-11 3.7239814015e-11 4.8318106527e-11 3.7239866962e-11 3.1619116973e-11 2.5584103983e-11
          3.1619103966e-11 3.7239747012e-11 2.9431498073e-11 2.5584126042e-11 2.0201887482e-11 2.5584122182e-11
          2.9431513393e-11 3.7239843644e-11 3.1619096792e-11 2.5584123898e-11 3.1619061267e-11 3.7239870761e-11
          4.8318200163e-11 3.7239802647e-11 2.9431365868e-11 3.7239783787e-11 4.831820238e-11 8.828978558e-12
          6.6604625627e-12 5.3743114226e-12 6.6604964349e-12 8.8289767069e-12 6.6603964778e-12 5.6770365155e-12
          4.6938457308e-12 5.6770170257e-12 6.6604813539e-12 5.3742507616e-12 4.6937924896e-12 3.830188136e-12
          4.6938317264e-12 5.3742831806e-12 6.6603912409e-12 5.6769098403e-12 4.6938648619e-12 5.6770104716e-12
          6.6604621715e-12 8.8290310926e-12 6.6604880031e-12 5.374306234e-12 6.6603901152e-12 8.8290297142e-12
          0.010318732326 0.010073634247 0.0090867590467 0.010073634247 0.010318732326 0.010073634247
          0.009768704516 0.0084583794598 0.009768704516 0.010073634247 0.0090867590467 0.0084583794598
          0.0070986913261 0.0084583794598 0.0090867590467 0.010073634247 0.009768704516 0.0084583794598
          0.009768704516 0.010073634247 0.010318732326 0.010073634247 0.0090867590467 0.010073634247
          0.010318732326 0.0046405710836 0.0045470744374 0.0035917412951 0.0045470744374 0.0046405710836
          0.0045470744374 0.0051942573809 0.0039098574283 0.0051942573809 0.0045470744374 0.0035917412951
          0.0039098574283 0.002332029919 0.0039098574283 0.0035917412951 0.0045470744374 0.0051942573809
          0.0039098574283 0.0051942573809 0.0045470744374 0.0046405710836 0.0045470744374 0.0035917412951
          0.0045470744374 0.0046405710836 0.004488336167 0.0061097260625 0.0050430755134 0.0061097260625
          0.004488336167 0.0061097260625 0.0093748524381 0.0079829889969 0.0093748524381 0.0061097260625
          0.0050430755134 0.0079829889969 0.0060535668156 0.0079829889969 0.0050430755134 0.0061097260625
          0.0093748524381 0.0079829889969 0.0093748524381 0.0061097260625 0.004488336167 0.0061097260625
          0.0050430755134 0.0061097260625 0.004488336167
        </DataArray>
        <DataArray type="Float64" Name="Displacement" NumberOfComponents="3" format="ascii" RangeMin="2.7695194115e-16" RangeMax="0.00016394186989">
          -7.2174274858e-05 2.2942336285e-05 -2.2942336285e-05 -7.5457923286e-05 2.6612538394e-05 -7.4082952937e-06
          -7.4410468964e-05 2.5455265117e-05 -5.8284114085e-20 -7.5457923286e-05 2.6612538394e-05 7.4082952937e-06
          -7.2174274858e-05 2.2942336285e-05 2.2942336285e-05 -7.5457923286e-05 7.4082952937e-06 -2.6612538394e-05
          -7.9497249625e-05 8.7887430633e-06 -8.7887430633e-06 -7.8930916195e-05 7.2717257904e-06 -6.1842413244e-20
          -7.9497249625e-05 8.7887430633e-06 8.7887430633e-06 -7.5457923286e-05 7.4082952937e-06 2.6612538394e-05
          -7.4410468964e-05 3.9701361848e-19 -2.5455265117e-05 -7.8930916195e-05 5.9079300812e-20 -7.2717257904e-06
          -7.8433944612e-05 8.5730526175e-20 -4.6844314227e-20 -7.8930916195e-05 -2.0287165176e-19 7.2717257904e-06
          -7.4410468964e-05 4.0377938603e-20 2.5455265117e-05 -7.5457923286e-05 -7.4082952937e-06 -2.6612538394e-05
          -7.9497249625e-05 -8.7887430633e-06 -8.7887430633e-06 -7.8930916195e-05 -7.2717257904e-06 -7.5664433098e-20
          -7.9497249625e-05 -8.7887430633e-06 8.7887430633e-06 -7.5457923286e-05 -7.4082952937e-06 2.6612538394e-05
          -7.2174274858e-05 -2.2942336285e-05 -2.2942336285e-05 -7.5457923286e-05 -2.6612538394e-05 -7.4082952937e-06
          -7.4410468964e-05 -2.5455265117e-05 -1.1694411033e-19 -7.5457923286e-05 -2.6612538394e-05 7.4082952937e-06
          -7.2174274858e-05 -2.2942336285e-05 2.2942336285e-05 -4.6858733684e-05 1.3956309838e-05 -1.3956309838e-05
          -4.787234843e-05 1.6054428522e-05 -4.9018816242e-06 -4.6355083157e-05 1.4822180077e-05 -1.3353575598e-19
          -4.787234843e-05 1.6054428522e-05 4.9018816242e-06 -4.6858733684e-05 1.3956309838e-05 1.3956309838e-05
          -4.787234843e-05 4.9018816242e-06 -1.6054428522e-05 -4.9217864727e-05 5.7565968258e-06 -5.7565968258e-06
          -4.7972470917e-05 4.385472813e-06 1.6404873631e-20 -4.9217864727e-05 5.7565968258e-06 5.7565968258e-06
          -4.787234843e-05 4.9018816242e-06 1.6054428522e-05 -4.6355083157e-05 2.4967616211e-19 -1.4822180077e-05
          -4.7972470917e-05 -1.3429748518e-19 -4.385472813e-06 -4.6448798987e-05 -1.5478417632e-21 -8.0767901872e-21
          -4.7972470917e-05 -6.7413841947e-21 4.385472813e-06 -4.6355083157e-05 3.7770812813e-21 1.4822180077e-05
          -4.787234843e-05 -4.9018816242e-06 -1.6054428522e-05 -4.9217864727e-05 -5.7565968258e-06 -5.7565968258e-06
          -4.7972470917e-05 -4.385472813e-06 -2.0143988142e-20 -4.9217864727e-05 -5.7565968258e-06 5.7565968258e-06
          -4.787234843e-05 -4.9018816242e-06 1.6054428522e-05 -4.6858733684e-05 -1.3956309838e-05 -1.3956309838e-05
          -4.787234843e-05 -1.6054428522e-05 -4.9018816242e-06 -4.6355083157e-05 -1.4822180077e-05 2.2216016283e-19
          -4.787234843e-05 -1.6054428522e-05 4.9018816242e-06 -4.6858733684e-05 -1.3956309838e-05 1.3956309838e-05
          -1.817725301e-05 4.4275135674e-06 -4.4275135674e-06 -1.674749324e-05 4.7149277178e-06 -1.7815605169e-06
          -1.5072097558e-05 4.3040156186e-06 1.2456730857e-19 -1.674749324e-05 4.7149277178e-06 1.7815605169e-06
          -1.817725301e-05 4.4275135674e-06 4.4275135674e-06 -1.674749324e-05 1.7815605169e-06 -4.7149277178e-06
          -1.5631880339e-05 1.9381771183e-06 -1.9381771183e-06 -1.4036831643e-05 1.6969920337e-06 3.6807334165e-20
          -1.5631880339e-05 1.9381771183e-06 1.9381771183e-06 -1.674749324e-05 1.7815605169e-06 4.7149277178e-06
          -1.5072097558e-05 -8.2147500935e-20 -4.3040156186e-06 -1.4036831643e-05 1.0046767852e-19 -1.6969920337e-06
          -1.277682519e-05 1.5087165734e-19 -2.1180432331e-19 -1.4036831643e-05 -1.0764399671e-21 1.6969920337e-06
          -1.5072097558e-05 1.1751373765e-19 4.3040156186e-06 -1.674749324e-05 -1.7815605169e-06 -4.7149277178e-06
          -1.5631880339e-05 -1.9381771183e-06 -1.9381771183e-06 -1.4036831643e-05 -1.6969920337e-06 -8.7112593023e-20
          -1.5631880339e-05 -1.9381771183e-06 1.9381771183e-06 -1.674749324e-05 -1.7815605169e-06 4.7149277178e-06
          -1.817725301e-05 -4.4275135674e-06 -4.4275135674e-06 -1.674749324e-05 -4.7149277178e-06 -1.7815605169e-06
          -1.5072097558e-05 -4.3040156186e-06 -4.8286403375e-20 -1.674749324e-05 -4.7149277178e-06 1.7815605169e-06
          -1.817725301e-05 -4.4275135674e-06 4.4275135674e-06 -6.9056224645e-06 1.9875747829e-06 -1.9875747829e-06
          -6.9296688342e-06 2.1714786387e-06 -7.2430829572e-07 -6.4329170325e-06 2.0124418767e-06 8.225408658e-20
          -6.9296688342e-06 2.1714786387e-06 7.2430829572e-07 -6.9056224645e-06 1.9875747829e-06 1.9875747829e-06
          -6.9296688342e-06 7.2430829572e-07 -2.1714786387e-06 -6.9941352384e-06 8.1981867223e-07 -8.1981867223e-07
          -6.4926374793e-06 7.0362026937e-07 -8.2245159541e-21 -6.9941352384e-06 8.1981867223e-07 8.1981867223e-07
          -6.9296688342e-06 7.2430829572e-07 2.1714786387e-06 -6.4329170325e-06 -3.6526187348e-21 -2.0124418767e-06
          -6.4926374793e-06 2.2931589821e-19 -7.0362026937e-07 -6.0975808805e-06 -1.3174875661e-19 -1.0824228948e-19
          -6.4926374793e-06 7.1208936857e-20 7.0362026937e-07 -6.4329170325e-06 -2.8350591928e-20 2.0124418767e-06
          -6.9296688342e-06 -7.2430829572e-07 -2.1714786387e-06 -6.9941352384e-06 -8.1981867223e-07 -8.1981867223e-07
          -6.4926374793e-06 -7.0362026937e-07 1.2839010015e-21 -6.9941352384e-06 -8.1981867223e-07 8.1981867223e-07
          -6.9296688342e-06 -7.2430829572e-07 2.1714786387e-06 -6.9056224645e-06 -1.9875747829e-06 -1.9875747829e-06
          -6.9296688342e-06 -2.1714786387e-06 -7.2430829572e-07 -6.4329170325e-06 -2.0124418767e-06 -2.1008985445e-20
          -6.9296688342e-06 -2.1714786387e-06 7.2430829572e-07 -6.9056224645e-06 -1.9875747829e-06 1.9875747829e-06
          -2.2002194094e-06 4.383100674e-07 -4.383100674e-07 -2.0620848672e-06 4.597562896e-07 -1.2924343561e-07
          -1.8446403656e-06 4.1510940853e-07 5.4168623508e-20 -2.0620848672e-06 4.597562896e-07 1.2924343561e-07
          -2.2002194094e-06 4.383100674e-07 4.383100674e-07 -2.0620848672e-06 1.2924343561e-07 -4.597562896e-07
          -1.957032854e-06 1.3374746944e-07 -1.3374746944e-07 -1.7565957674e-06 8.9791128027e-08 3.1392119386e-20
          -1.957032854e-06 1.3374746944e-07 1.3374746944e-07 -2.0620848672e-06 1.2924343561e-07 4.597562896e-07
          -1.8446403656e-06 -2.9881324087e-20 -4.1510940853e-07 -1.7565957674e-06 1.6596607209e-19 -8.9791128027e-08
          -1.5679778542e-06 -6.4212390204e-20 1.0394833364e-19 -1.7565957674e-06 -7.1671244357e-20 8.9791128027e-08
          -1.8446403656e-06 1.3425043407e-19 4.1510940853e-07 -2.0620848672e-06 -1.2924343561e-07 -4.597562896e-07
          -1.957032854e-06 -1.3374746944e-07 -1.3374746944e-07 -1.7565957674e-06 -8.9791128027e-08 1.5447777925e-19
          -1.957032854e-06 -1.3374746944e-07 1.3374746944e-07 -2.0620848672e-06 -1.2924343561e-07 4.597562896e-07
          -2.2002194094e-06 -4.383100674e-07 -4.383100674e-07 -2.0620848672e-06 -4.597562896e-07 -1.2924343561e-07
          -1.8446403656e-06 -4.1510940853e-07 3.6422303334e-20 -2.0620848672e-06 -4.597562896e-07 1.2924343561e-07
          -2.2002194094e-06 -4.383100674e-07 4.383100674e-07 -6.2682295243e-07 1.3135304897e-07 -1.3135304897e-07
          -5.5859999143e-07 1.4114644179e-07 -4.6992081704e-08 -4.8616096543e-07 1.3014976263e-07 7.3134514489e-20
          -5.5859999143e-07 1.4114644179e-07 4.6992081704e-08 -6.2682295243e-07 1.3135304897e-07 1.3135304897e-07
          -5.5859999143e-07 4.6992081703e-08 -1.4114644179e-07 -5.1883869118e-07 5.1365302633e-08 -5.1365302633e-08
          -4.591101843e-07 4.3142327699e-08 -9.4235309825e-20 -5.1883869118e-07 5.1365302633e-08 5.1365302633e-08
          -5.5859999143e-07 4.6992081704e-08 1.4114644179e-07 -4.8616096543e-07 -1.0123000555e-19 -1.3014976263e-07
          -4.591101843e-07 1.7719616834e-19 -4.3142327699e-08 -4.1694186714e-07 -3.0545522215e-20 -2.4649639235e-19
          -4.591101843e-07 3.869511936e-20 4.3142327698e-08 -4.8616096543e-07 8.0959937318e-20 1.3014976263e-07
          -5.5859999143e-07 -4.6992081704e-08 -1.4114644179e-07 -5.1883869118e-07 -5.1365302633e-08 -5.1365302633e-08
          -4.591101843e-07 -4.3142327698e-08 -2.715232175e-20 -5.1883869118e-07 -5.1365302633e-08 5.1365302633e-08
          -5.5859999143e-07 -4.6992081704e-08 1.4114644179e-07 -6.2682295243e-07 -1.3135304897e-07 -1.3135304897e-07
          -5.5859999143e-07 -1.4114644179e-07 -4.6992081704e-08 -4.8616096543e-07 -1.3014976263e-07 -6.3044032327e-20
          -5.5859999143e-07 -1.4114644179e-07 4.6992081704e-08 -6.2682295243e-07 -1.3135304897e-07 1.3135304897e-07
          -1.5359981718e-07 2.9978990222e-08 -2.9978990222e-08 -1.4509725945e-07 3.2413068651e-08 -9.3813067165e-09
          -1.2905536141e-07 2.9962368306e-08 2.3702333563e-19 -1.4509725945e-07 3.2413068651e-08 9.3813067165e-09
          -1.5359981718e-07 2.9978990222e-08 2.9978990222e-08 -1.4509725945e-07 9.3813067161e-09 -3.2413068651e-08
          -1.4058530869e-07 1.0449919286e-08 -1.0449919287e-08 -1.264043668e-07 7.8024725827e-09 2.1251048818e-19
          -1.4058530869e-07 1.0449919286e-08 1.0449919286e-08 -1.4509725945e-07 9.3813067162e-09 3.2413068651e-08
          -1.2905536141e-07 -1.4068920237e-19 -2.9962368305e-08 -1.264043668e-07 8.9979366048e-20 -7.802472583e-09
          -1.1520766319e-07 1.5622262698e-20 8.2970368584e-21 -1.264043668e-07 -8.6782296544e-20 7.8024725829e-09
          -1.2905536141e-07 8.1209558224e-20 2.9962368306e-08 -1.4509725945e-07 -9.3813067163e-09 -3.2413068651e-08
          -1.4058530869e-07 -1.0449919287e-08 -1.0449919287e-08 -1.264043668e-07 -7.8024725829e-09 1.1489605038e-20
          -1.4058530869e-07 -1.0449919287e-08 1.0449919287e-08 -1.4509725945e-07 -9.3813067165e-09 3.2413068651e-08
          -1.5359981718e-07 -2.9978990222e-08 -2.9978990222e-08 -1.4509725945e-07 -3.2413068651e-08 -9.3813067161e-09
          -1.2905536141e-07 -2.9962368306e-08 -9.4925749161e-20 -1.4509725945e-07 -3.2413068651e-08 9.3813067162e-09
          -1.5359981718e-07 -2.9978990222e-08 2.9978990222e-08 -3.6401252417e-08 5.989052626e-09 -5.9890526259e-09
          -3.2085695139e-08 6.3381528371e-09 -1.6864607019e-09 -2.7584339352e-08 5.8067620374e-09 -1.3021687568e-19
          -3.2085695139e-08 6.338152837e-09 1.6864607015e-09 -3.6401252417e-08 5.9890526262e-09 5.9890526262e-09
          -3.2085695139e-08 1.6864607018e-09 -6.338152837e-09 -2.9307672328e-08 1.7932940067e-09 -1.7932940064e-09
          -2.5585564299e-08 1.1925419854e-09 -6.5232908762e-20 -2.9307672327e-08 1.7932940066e-09 1.7932940065e-09
          -3.2085695139e-08 1.686460702e-09 6.3381528369e-09 -2.7584339352e-08 -1.1398678806e-19 -5.8067620376e-09
          -2.5585564299e-08 -4.4207901735e-20 -1.1925419854e-09 -2.2364712565e-08 -3.1359233922e-21 5.7395125062e-20
          -2.5585564299e-08 1.2773064176e-19 1.1925419853e-09 -2.7584339352e-08 6.5637285259e-20 5.8067620375e-09
          -3.2085695139e-08 -1.6864607021e-09 -6.338152837e-09 -2.9307672328e-08 -1.7932940063e-09 -1.7932940062e-09
          -2.5585564299e-08 -1.1925419855e-09 8.332318224e-20 -2.9307672327e-08 -1.7932940065e-09 1.7932940064e-09
          -3.2085695139e-08 -1.6864607018e-09 6.338152837e-09 -3.6401252416e-08 -5.9890526261e-09 -5.9890526259e-09
          -3.2085695139e-08 -6.338152837e-09 -1.6864607018e-09 -2.7584339352e-08 -5.8067620376e-09 5.8901233264e-20
          -3.2085695139e-08 -6.338152837e-09 1.6864607018e-09 -3.6401252417e-08 -5.9890526262e-09 5.9890526261e-09
          -7.9427651026e-09 1.3021276979e-09 -1.3021276978e-09 -6.7666028813e-09 1.413514068e-09 -4.2365366747e-10
          -5.7495073487e-09 1.3122543755e-09 -4.2845299253e-20 -6.7666028815e-09 1.4135140682e-09 4.2365366755e-10
          -7.9427651026e-09 1.302127698e-09 1.3021276981e-09 -6.7666028814e-09 4.2365366761e-10 -1.4135140682e-09
          -6.2102032985e-09 4.7049188067e-10 -4.7049188063e-10 -5.4562527471e-09 3.6098750157e-10 -1.6720875119e-19
          -6.2102032989e-09 4.7049188073e-10 4.7049188083e-10 -6.7666028815e-09 4.2365366748e-10 1.4135140682e-09
          -5.7495073487e-09 5.8976470648e-20 -1.3122543755e-09 -5.4562527474e-09 3.5926419543e-21 -3.6098750143e-10
          -4.9226569856e-09 1.5930523587e-19 -1.5984698294e-20 -5.456252747e-09 -6.6590896067e-20 3.6098750148e-10
          -5.7495073486e-09 1.1302292345e-20 1.3122543755e-09 -6.7666028815e-09 -4.236536674e-10 -1.4135140682e-09
          -6.2102032985e-09 -4.7049188107e-10 -4.7049188093e-10 -5.4562527471e-09 -3.6098750125e-10 -1.0271522467e-19
          -6.2102032985e-09 -4.704918807e-10 4.7049188089e-10 -6.7666028816e-09 -4.2365366716e-10 1.413514068e-09
          -7.9427651025e-09 -1.3021276979e-09 -1.3021276981e-09 -6.7666028813e-09 -1.4135140682e-09 -4.2365366749e-10
          -5.7495073486e-09 -1.3122543755e-09 3.1136164615e-20 -6.7666028816e-09 -1.413514068e-09 4.236536673e-10
          -7.9427651024e-09 -1.302127698e-09 1.3021276979e-09 -1.496411954e-09 2.2832450763e-10 -2.2832450762e-10
          -1.3276570626e-09 2.4483165934e-10 -6.2739560896e-11 -1.139242067e-09 2.2622089157e-10 5.0957438309e-20
          -1.3276570627e-09 2.4483165932e-10 6.273956086e-11 -1.4964119541e-09 2.2832450767e-10 2.2832450767e-10
          -1.3276570627e-09 6.2739560714e-11 -2.4483165919e-10 -1.2333919462e-09 6.9148869571e-11 -6.914886891e-11
          -1.0809473089e-09 4.5006968527e-11 1.8074228931e-20 -1.2333919464e-09 6.9148869219e-11 6.9148869422e-11
          -1.3276570629e-09 6.2739560704e-11 2.4483165947e-10 -1.1392420667e-09 2.3121960872e-20 -2.2622089142e-10
          -1.0809473089e-09 6.5618531314e-20 -4.5006968424e-11 -9.5877948758e-10 -7.9003724002e-20 -2.2128739323e-19
          -1.0809473088e-09 8.8662040866e-20 4.5006968427e-11 -1.1392420669e-09 7.4897371337e-21 2.2622089156e-10
          -1.3276570627e-09 -6.2739560895e-11 -2.448316593e-10 -1.2333919463e-09 -6.9148869416e-11 -6.9148869297e-11
          -1.0809473089e-09 -4.5006968452e-11 3.826646988e-20 -1.2333919464e-09 -6.9148869164e-11 6.914886945e-11
          -1.3276570627e-09 -6.273956081e-11 2.4483165943e-10 -1.496411954e-09 -2.2832450768e-10 -2.2832450769e-10
          -1.3276570628e-09 -2.4483165932e-10 -6.2739560815e-11 -1.1392420665e-09 -2.2622089148e-10 6.5142722403e-20
          -1.3276570627e-09 -2.4483165915e-10 6.2739560862e-11 -1.4964119539e-09 -2.2832450771e-10 2.2832450764e-10
          -2.879889432e-10 3.9492103695e-11 -3.949210368e-11 -2.3972397395e-10 4.228062913e-11 -1.0371323855e-11
          -2.0052638079e-10 3.9096325425e-11 -1.6740067283e-19 -2.39723974e-10 4.2280629023e-11 1.0371323672e-11
          -2.8798894318e-10 3.9492103908e-11 3.9492103969e-11 -2.3972397402e-10 1.037132413e-11 -4.2280629179e-11
          -2.1311117255e-10 1.1437305315e-11 -1.1437305278e-11 -1.8383223256e-10 7.1166418213e-12 -1.0179806403e-19
          -2.131111727e-10 1.1437305312e-11 1.1437305133e-11 -2.3972397405e-10 1.0371323762e-11 4.2280629131e-11
          -2.0052638066e-10 -1.5452290974e-19 -3.9096325295e-11 -1.8383223264e-10 -2.0083405243e-20 -7.1166418923e-12
          -1.5910058606e-10 2.4801554805e-20 -2.4372020395e-20 -1.8383223258e-10 -1.5998067399e-19 7.1166418436e-12
          -2.0052638093e-10 -5.7365599895e-20 3.9096325385e-11 -2.3972397396e-10 -1.0371323825e-11 -4.2280629118e-11
          -2.1311117274e-10 -1.1437305539e-11 -1.1437305441e-11 -1.8383223262e-10 -7.116641625e-12 -8.9589037182e-21
          -2.131111725e-10 -1.1437305155e-11 1.1437305281e-11 -2.3972397377e-10 -1.0371323831e-11 4.2280629069e-11
          -2.8798894332e-10 -3.9492103949e-11 -3.9492103921e-11 -2.3972397407e-10 -4.2280629069e-11 -1.0371323797e-11
          -2.0052638077e-10 -3.9096325556e-11 -3.1942502109e-20 -2.3972397398e-10 -4.2280629058e-11 1.037132377e-11
          -2.8798894333e-10 -3.9492103917e-11 3.9492103977e-11 -5.0943777998e-11 6.6904895098e-12 -6.6904894052e-12
          -4.1024015562e-11 7.2507238563e-12 -1.9360613708e-12 -3.398325793e-11 6.7398555716e-12 -1.3233300534e-19
          -4.1024015471e-11 7.2507239666e-12 1.9360614583e-12 -5.0943778225e-11 6.6904894516e-12 6.6904894192e-12
          -4.1024015583e-11 1.9360614883e-12 -7.2507239389e-12 -3.6732446795e-11 2.1604717425e-12 -2.1604714398e-12
          -3.1849300927e-11 1.4793160649e-12 -5.9521789141e-20 -3.6732446836e-11 2.160471743e-12 2.1604714851e-12
          -4.1024015439e-11 1.9360614013e-12 7.2507239691e-12 -3.3983257818e-11 -2.9138871723e-20 -6.7398555878e-12
          -3.1849300567e-11 -1.196469013e-19 -1.4793161465e-12 -2.8270078477e-11 -1.0119436381e-19 3.9422594229e-20
          -3.1849300788e-11 -2.1270330284e-20 1.4793161691e-12 -3.3983257776e-11 1.198565404e-19 6.7398555814e-12
          -4.1024015817e-11 -1.936061307e-12 -7.2507238332e-12 -3.6732446954e-11 -2.160471336e-12 -2.1604716363e-12
          -3.1849300968e-11 -1.4793163856e-12 -4.190810827e-20 -3.6732446998e-11 -2.1604714211e-12 2.1604713842e-12
          -4.1024015474e-11 -1.9360617166e-12 7.2507240468e-12 -5.0943778138e-11 -6.6904895627e-12 -6.6904895953e-12
          -4.1024015789e-11 -7.250723985e-12 -1.9360617071e-12 -3.3983257652e-11 -6.7398555e-12 -1.8001703281e-19
          -4.1024015595e-11 -7.2507238752e-12 1.9360616055e-12 -5.0943778169e-11 -6.6904895445e-12 6.6904896253e-12
          -7.9530577145e-12 9.980449986e-13 -9.9804493581e-13 -6.6314545369e-12 1.0685197961e-12 -2.4193925658e-13
          -5.5223627233e-12 9.8917937076e-13 6.2713730454e-20 -6.6314544649e-12 1.0685198266e-12 2.4193927665e-13
          -7.9530576697e-12 9.9804494159e-13 9.9804491218e-13 -6.631454563e-12 2.419394099e-13 -1.0685198106e-12
          -5.9331239192e-12 2.6959139468e-13 -2.6959116484e-13 -5.1057154702e-12 1.5031768051e-13 -1.8400070097e-19
          -5.933124035e-12 2.695910332e-13 2.6959120051e-13 -6.6314545873e-12 2.419391443e-13 1.0685196395e-12