<?xml version="1.0"?>
<VTKFile type="UnstructuredGrid" version="0.1" byte_order="LittleEndian" compressor="vtkZLibDataCompressor">
  <UnstructuredGrid>
    <Piece NumberOfPoints="525" NumberOfCells="525">
      <PointData>
        <DataArray type="Float64" Name="Damage" format="ascii" RangeMin="0" RangeMax="0">
          0 0 0 0 0 0
          0 0 0 0 0 0
          0 0 0 0 0 0
          0 0 0 0 0 0
          0 0 0 0 0 0
          0 0 0 0 0 0
          0 0 0 0 0 0
          0 0 0 0 0 0
          0 0 0 0 0 0
          0 0 0 0 0 0
          0 0 0 0 0 0
          0 0 0 0 0 0
          0 0 0 0 0 0
          0 0 0 0 0 0
          0 0 0 0 0 0
          0 0 0 0 0 0
          0 0 0 0 0 0
          0 0 0 0 0 0
          0 0 0 0 0 0
          0 0 0 0 0 0
          0 0 0 0 0 0
          0 0 0 0 0 0
          0 0 0 0 0 0
          0 0 0 0 0 0
          0 0 0 0 0 0
          0 0 0 0 0 0
          0 0 0 0 0 0
          0 0 0 0 0 0
          0 0 0 0 0 0
          0 0 0 0 0 0
          0 0 0 0 0 0
          0 0 0 0 0 0
          0 0 0 0 0 0
          0 0 0 0 0 0
          0 0 0 0 0 0
          0 0 0 0 0 0
          0 0 0 0 0 0
          0 0 0 0 0 0
          0 0 0 0 0 0
          0 0 0 0 0 0
          0 0 0 0 0 0
          0 0 0 0 0 0
          0 0 0 0 0 0
          0 0 0 0 0 0
          0 0 0 0 0 0
          0 0 0 0 0 0
          0 0 0 0 0 0
          0 0 0 0 0 0
          0 0 0 0 0 0
          0 0 0 0 0 0
          0 0 0 0 0 0
          0 0 0 0 0 0
          0 0 0 0 0 0
          0 0 0 0 0 0
          0 0 0 0 0 0
          0 0 0 0 0 0
          0 0 0 0 0 0
          0 0 0 0 0 0
          0 0 0 0 0 0
          0 0 0 0 0 0
          0 0 0 0 0 0
          0 0 0 0 0 0
          0 0 0 0 0 0
          0 0 0 0 0 0
          0 0 0 0 0 0
          0 0 0 0 0 0
          0 0 0 0 0 0
          0 0 0 0 0 0
          0 0 0 0 0 0
          0 0 0 0 0 0
          0 0 0 0 0 0
          0 0 0 0 0 0
          0 0 0 0 0 0
          0 0 0 0 0 0
          0 0 0 0 0 0
          0 0 0 0 0 0
          0 0 0 0 0 0
          0 0 0 0 0 0
          0 0 0 0 0 0
          0 0 0 0 0 0
          0 0 0 0 0 0
          0 0 0 0 0 0
          0 0 0 0 0 0
          0 0 0 0 0 0
          0 0 0 0 0 0
          0 0 0 0 0 0
          0 0 0 0 0 0
          0 0 0
        </DataArray>
        <DataArray type="Float64" Name="Dilatation" format="ascii" RangeMin="-0.0084895734308" RangeMax="0.0054948063937">
          0.0016438414238 -0.0016466745284 -0.0029995742175 -0.0016466745284 0.0016438414238 -0.0016466745284
          -0.0038866042937 -0.0024047505785 -0.0038866042937 -0.0016466745284 -0.0029995742175 -0.0024047505785
          -0.0021382493645 -0.0024047505785 -0.0029995742175 -0.0016466745284 -0.0038866042937 -0.0024047505785
          -0.0038866042937 -0.0016466745284 0.0016438414238 -0.0016466745284 -0.0029995742175 -0.0016466745284
          0.0016438414238 -0.0016677682343 0.00030745802644 -0.0023490597087 0.00030745802644 -0.0016677682343
          0.00030745802644 -0.00015424457544 -0.0013281037025 -0.00015424457544 0.00030745802644 -0.0023490597087
          -0.0013281037025 -0.0028087055103 -0.0013281037025 -0.0023490597087 0.00030745802644 -0.00015424457544
          -0.0013281037025 -0.00015424457544 0.00030745802644 -0.0016677682343 0.00030745802644 -0.0023490597087
          0.00030745802644 -0.0016677682343 -0.008064831849 -0.0011869748812 -0.0030046455757 -0.0011869748812
          -0.008064831849 -0.0011869748812 0.0020055265928 1.073420163e-05 0.0020055265928 -0.0011869748812
          -0.0030046455757 1.073420163e-05 -0.0027592291941 1.073420163e-05 -0.0030046455757 -0.0011869748812
          0.0020055265928 1.073420163e-05 0.0020055265928 -0.0011869748812 -0.008064831849 -0.0011869748812
          -0.0030046455757 -0.0011869748812 -0.008064831849 -0.0084895734308 -0.0036354721871 -0.004942717911
          -0.0036354721871 -0.0084895734308 -0.0036354721871 0.0011010420887 -0.001004897408 0.0011010420887
          -0.0036354721871 -0.004942717911 -0.001004897408 -0.0030110228576 -0.001004897408 -0.004942717911
          -0.0036354721871 0.0011010420887 -0.001004897408 0.0011010420887 -0.0036354721871 -0.0084895734308
          -0.0036354721871 -0.004942717911 -0.0036354721871 -0.0084895734308 -0.0068629277474 -0.0044402914786
          -0.0041549025639 -0.0044402914786 -0.0068629277474 -0.0044402914786 -0.00079841286723 -0.0018036375166
          -0.00079841286723 -0.0044402914786 -0.0041549025639 -0.0018036375166 -0.0024848794221 -0.0018036375166
          -0.0041549025639 -0.0044402914786 -0.00079841286723 -0.0018036375166 -0.00079841286723 -0.0044402914786
          -0.0068629277474 -0.0044402914786 -0.0041549025639 -0.0044402914786 -0.0068629277474 -0.0026959329994
          -0.0034303636461 -0.0025713740692 -0.0034303636461 -0.0026959329994 -0.0034303636461 -0.0020472114208
          -0.0021977881639 -0.0020472114208 -0.0034303636461 -0.0025713740692 -0.0021977881639 -0.0019251298014
          -0.0021977881639 -0.0025713740692 -0.0034303636461 -0.0020472114208 -0.0021977881639 -0.0020472114208
          -0.0034303636461 -0.0026959329994 -0.0034303636461 -0.0025713740692 -0.0034303636461 -0.0026959329994
          0.0007727744812 -0.0013613882948 -0.00049786416132 -0.0013613882948 0.0007727744812 -0.0013613882948
          -0.0024374837376 -0.0018804933609 -0.0024374837376 -0.0013613882948 -0.00049786416132 -0.0018804933609
          -0.00092850602028 -0.0018804933609 -0.00049786416132 -0.0013613882948 -0.0024374837376 -0.0018804933609
          -0.0024374837376 -0.0013613882948 0.0007727744812 -0.0013613882948 -0.00049786416132 -0.0013613882948
          0.0007727744812 0.001299047023 -0.00093547095229 -0.0004611634072 -0.00093547095229 0.001299047023
          -0.00093547095229 -0.0030708524773 -0.002294217946 -0.0030708524773 -0.00093547095229 -0.0004611634072
          -0.002294217946 -0.0012130794576 -0.002294217946 -0.0004611634072 -0.00093547095229 -0.0030708524773
          -0.002294217946 -0.0030708524773 -0.00093547095229 0.001299047023 -0.00093547095229 -0.0004611634072
          -0.00093547095229 0.001299047023 0.0011790449504 -0.00011470117506 -0.00024273149203 -0.00011470117506
          0.0011790449504 -0.00011470117506 -0.002323433971 -0.0018064128945 -0.002323433971 -0.00011470117506
          -0.00024273149203 -0.0018064128945 -0.0010516089311 -0.0018064128945 -0.00024273149203 -0.00011470117506
          -0.002323433971 -0.0018064128945 -0.002323433971 -0.00011470117506 0.0011790449504 -0.00011470117506
          -0.00024273149203 -0.00011470117506 0.0011790449504 -0.0010348510299 -0.001097643578 -0.0012916602802
          -0.001097643578 -0.0010348510299 -0.001097643578 -0.002462086011 -0.0019797114261 -0.002462086011
          -0.001097643578 -0.0012916602802 -0.0019797114261 -0.001426611141 -0.0019797114261 -0.0012916602802
          -0.001097643578 -0.002462086011 -0.0019797114261 -0.002462086011 -0.001097643578 -0.0010348510299
          -0.001097643578 -0.0012916602802 -0.001097643578 -0.0010348510299 -0.0016765231305 -0.001343826982
          -0.0015253268531 -0.001343826982 -0.0016765231305 -0.001343826982 -0.0020803407668 -0.0017285643578
          -0.0020803407668 -0.001343826982 -0.0015253268531 -0.0017285643578 -0.0013663841426 -0.0017285643578
          -0.0015253268531 -0.001343826982 -0.0020803407668 -0.0017285643578 -0.0020803407668 -0.001343826982
          -0.0016765231305 -0.001343826982 -0.0015253268531 -0.001343826982 -0.0016765231305 -0.0010422330977
          -0.0007378264039 -0.00082534557903 -0.0007378264039 -0.0010422330977 -0.0007378264039 -0.00096709366948
          -0.0007697992422 -0.00096709366948 -0.0007378264039 -0.00082534557903 -0.0007697992422 -0.00056575164976
          -0.0007697992422 -0.00082534557903 -0.0007378264039 -0.00096709366948 -0.0007697992422 -0.00096709366948
          -0.0007378264039 -0.0010422330977 -0.0007378264039 -0.00082534557903 -0.0007378264039 -0.0010422330977
          -0.00034402862344 -0.00023750672339 -0.00021041494044 -0.00023750672339 -0.00034402862344 -0.00023750672339
          -2.2327912714e-05 2.9604851744e-05 -2.2327912714e-05 -0.00023750672339 -0.00021041494044 2.9604851744e-05
          6.4878456757e-05 2.9604851744e-05 -0.00021041494044 -0.00023750672339 -2.2327912714e-05 2.9604851744e-05
          -2.2327912714e-05 -0.00023750672339 -0.00034402862344 -0.00023750672339 -0.00021041494044 -0.00023750672339
          -0.00034402862344 -1.7756336474e-05 1.8834496354e-05 0.00012595681523 1.8834496354e-05 -1.7756336474e-05
          1.8834496354e-05 0.00064907404659 0.00056470168011 0.00064907404659 1.8834496354e-05 0.00012595681523
          0.00056470168011 0.00042960963794 0.00056470168011 0.00012595681523 1.8834496354e-05 0.00064907404659
          0.00056470168011 0.00064907404659 1.8834496354e-05 -1.7756336474e-05 1.8834496354e-05 0.00012595681523
          1.8834496354e-05 -1.7756336474e-05 -0.00015499862164 -4.6861717415e-05 0.00010930917098 -4.6861717415e-05
          -0.00015499862164 -4.6861717415e-05 0.00081560781321 0.00066379426992 0.00081560781321 -4.6861717415e-05
          0.00010930917098 0.00066379426992 0.00042799028703 0.00066379426992 0.00010930917098 -4.6861717415e-05
          0.00081560781321 0.00066379426992 0.00081560781321 -4.6861717415e-05 -0.00015499862164 -4.6861717415e-05
          0.00010930917098 -4.6861717415e-05 -0.00015499862164 -0.00041775800735 -0.00018680952432 -5.5005271193e-05
          -0.00018680952432 -0.00041775800735 -0.00018680952432 0.00072759319839 0.00052302377261 0.00072759319839
          -0.00018680952432 -5.5005271192e-05 0.00052302377261 0.00023669148391 0.00052302377261 -5.5005271193e-05
          -0.00018680952432 0.00072759319839 0.00052302377261 0.00072759319839 -0.00018680952432 -0.00041775800735
          -0.00018680952432 -5.5005271193e-05 -0.00018680952432 -0.00041775800735 -9.3373734019e-05 0.00019404177234
          0.00026836909596 0.00019404177234 -9.3373734019e-05 0.00019404177234 0.00047596886255 0.00028392160932
          0.00047596886255 0.00019404177234 0.00026836909596 0.00028392160932 3.9525626166e-06 0.00028392160932
          0.00026836909596 0.00019404177234 0.00047596886255 0.00028392160932 0.00047596886255 0.00019404177234
          -9.3373734019e-05 0.00019404177234 0.00026836909596 0.00019404177234 -9.3373734019e-05 8.2395792847e-05
          0.00041951480573 0.00061646257677 0.00041951480573 8.2395792847e-05 0.00041951480573 0.00084892467288
          0.001181838309 0.00084892467288 0.00041951480573 0.00061646257677 0.001181838309 0.0015766778053
          0.001181838309 0.00061646257677 0.00041951480573 0.00084892467288 0.001181838309 0.00084892467288
          0.00041951480573 8.2395792847e-05 0.00041951480573 0.00061646257677 0.00041951480573 8.2395792847e-05
          0.0054948063937 0.0037106309093 0.0023620201748 0.0037106309093 0.0054948063937 0.0037106309093
          0.0037049127375 0.0031375677063 0.0037049127375 0.0037106309093 0.0023620201748 0.0031375677063
          0.0017237806463 0.0031375677063 0.0023620201748 0.0037106309093 0.0037049127375 0.0031375677063
          0.0037049127375 0.0037106309093 0.0054948063937 0.0037106309093 0.0023620201748 0.0037106309093
          0.0054948063937 -0.0005251279332 -0.0019374686953 -0.00025492787978 -0.0019374686953 -0.0005251279332
          -0.0019374686953 -0.0052331538365 -0.0034067728283 -0.0052331538365 -0.0019374686953 -0.00025492787978
          -0.0034067728283 -0.0036817077074 -0.0034067728283 -0.00025492787978 -0.0019374686953 -0.0052331538365
          -0.0034067728283 -0.0052331538365 -0.0019374686953 -0.0005251279332 -0.0019374686953 -0.00025492787978
          -0.0019374686953 -0.0005251279332 -0.0026191553583 -0.0034896553493 -0.0010881219033 -0.0034896553493
          -0.0026191553583 -0.0034896553493 -0.0058277511475 -0.0030754914897 -0.0058277511475 -0.0034896553493
          -0.0010881219033 -0.0030754914897 -0.00095864734739 -0.0030754914897 -0.0010881219033 -0.0034896553493
          -0.0058277511475 -0.0030754914897 -0.0058277511475 -0.0034896553493 -0.0026191553583 -0.0034896553493
          -0.0010881219033 -0.0034896553493 -0.0026191553583
        </DataArray>
        <DataArray type="Float64" Name="Displacement" NumberOfComponents="3" format="ascii" RangeMin="0.0001532261582" RangeMax="0.00021289574721">
          -0.00017212576927 -5.6532472312e-06 5.6532472312e-06 -0.00017966324831 -6.8765257374e-08 2.2792901016e-06
          -0.00018163906817 3.9726541926e-06 -7.2148056741e-20 -0.00017966324831 -6.8765257374e-08 -2.2792901016e-06
          -0.00017212576927 -5.6532472312e-06 -5.6532472312e-06 -0.00017966324831 -2.2792901016e-06 6.8765257374e-08
          -0.00018726564851 5.2176477817e-06 -5.2176477817e-06 -0.00018794363533 2.4394424711e-08 4.4343573332e-20
          -0.00018726564851 5.2176477817e-06 5.2176477817e-06 -0.00017966324831 -2.2792901016e-06 -6.8765257374e-08
          -0.00018163906817 1.4165538752e-19 -3.9726541926e-06 -0.00018794363533 -2.8676562588e-19 -2.4394424711e-08
          -0.00018941432899 2.2941201081e-19 -6.9614188865e-21 -0.00018794363533 -1.6483136255e-19 2.4394424711e-08
          -0.00018163906817 -2.3082003103e-19 3.9726541926e-06 -0.00017966324831 2.2792901016e-06 6.8765257374e-08
          -0.00018726564851 -5.2176477817e-06 -5.2176477817e-06 -0.00018794363533 -2.4394424711e-08 3.2881658664e-20
          -0.00018726564851 -5.2176477817e-06 5.2176477817e-06 -0.00017966324831 2.2792901016e-06 -6.8765257374e-08
          -0.00017212576927 5.6532472312e-06 5.6532472312e-06 -0.00017966324831 6.8765257374e-08 2.2792901016e-06
          -0.00018163906817 -3.9726541926e-06 3.6671254853e-19 -0.00017966324831 6.8765257374e-08 -2.2792901016e-06
          -0.00017212576927 5.6532472312e-06 -5.6532472312e-06 -0.00017016160144 2.4714058784e-06 -2.4714058784e-06
          -0.00017665373647 -2.3677314741e-06 5.3984813566e-06 -0.00017519033006 2.7003076288e-06 -3.1521545718e-19
          -0.00017665373647 -2.3677314741e-06 -5.3984813566e-06 -0.00017016160144 2.4714058784e-06 2.4714058784e-06
          -0.00017665373647 -5.3984813566e-06 2.3677314741e-06 -0.0001736045353 -5.1404170626e-06 5.1404170626e-06
          -0.00017016724451 -7.8338752494e-06 1.380135385e-19 -0.0001736045353 -5.1404170626e-06 -5.1404170626e-06
          -0.00017665373647 -5.3984813566e-06 -2.3677314741e-06 -0.00017519033006 1.6741731296e-19 -2.7003076288e-06
          -0.00017016724451 -5.79932118e-20 7.8338752494e-06 -0.00017352247978 -4.2171805873e-19 -4.428790619e-20
          -0.00017016724451 -2.8903074455e-19 -7.8338752494e-06 -0.00017519033006 2.4730451937e-20 2.7003076288e-06
          -0.00017665373647 5.3984813566e-06 2.3677314741e-06 -0.0001736045353 5.1404170626e-06 5.1404170626e-06
          -0.00017016724451 7.8338752494e-06 6.9288729582e-20 -0.0001736045353 5.1404170626e-06 -5.1404170626e-06
          -0.00017665373647 5.3984813566e-06 -2.3677314741e-06 -0.00017016160144 -2.4714058784e-06 -2.4714058784e-06
          -0.00017665373647 2.3677314741e-06 5.3984813566e-06 -0.00017519033006 -2.7003076288e-06 2.2603424865e-19
          -0.00017665373647 2.3677314741e-06 -5.3984813566e-06 -0.00017016160144 -2.4714058784e-06 2.4714058784e-06
          -0.00017611120305 1.6698845437e-05 -1.6698845437e-05 -0.00018568938814 4.9482698307e-06 9.2106390176e-08
          -0.00018460045883 8.4165007737e-06 8.1216699364e-20 -0.00018568938814 4.9482698307e-06 -9.2106390176e-08
          -0.00017611120305 1.6698845437e-05 1.6698845437e-05 -0.00018568938814 -9.2106390176e-08 -4.9482698307e-06
          -0.00017674085403 -7.3696792863e-06 7.3696792863e-06 -0.00017321728846 -1.0772891338e-05 -1.4988751956e-19
          -0.00017674085403 -7.3696792863e-06 -7.3696792863e-06 -0.00018568938814 -9.2106390176e-08 4.9482698307e-06
          -0.00018460045883 4.574736193e-19 -8.4165007737e-06 -0.00017321728846 7.3472812709e-20 1.0772891338e-05
          -0.00017284881963 -5.0817951685e-19 -8.9459627156e-20 -0.00017321728846 -3.8986253634e-19 -1.0772891338e-05
          -0.00018460045883 -4.267349197e-19 8.4165007737e-06 -0.00018568938814 9.2106390176e-08 -4.9482698307e-06
          -0.00017674085403 7.3696792863e-06 7.3696792863e-06 -0.00017321728846 1.0772891338e-05 2.0572386326e-19
          -0.00017674085403 7.3696792863e-06 -7.3696792863e-06 -0.00018568938814 9.2106390176e-08 4.9482698307e-06
          -0.00017611120305 -1.6698845437e-05 -1.6698845437e-05 -0.00018568938814 -4.9482698307e-06 9.2106390176e-08
          -0.00018460045883 -8.4165007737e-06 3.2147279111e-20 -0.00018568938814 -4.9482698307e-06 -9.2106390176e-08
          -0.00017611120305 -1.6698845437e-05 1.6698845437e-05 -0.00017151670582 1.9438666537e-05 -1.9438666537e-05
          -0.00018047751834 1.4617150058e-05 -2.8484524967e-06 -0.00017705323679 1.736703676e-05 -1.0855427486e-20
          -0.00018047751834 1.4617150058e-05 2.8484524967e-06 -0.00017151670582 1.9438666537e-05 1.9438666537e-05
          -0.00018047751834 2.8484524967e-06 -1.4617150058e-05 -0.00017933064058 -3.8108498127e-06 3.8108498127e-06
          -0.00017429833973 -3.7190485085e-06 5.9906430601e-20 -0.00017933064058 -3.8108498127e-06 -3.8108498127e-06
          -0.00018047751834 2.8484524967e-06 1.4617150058e-05 -0.00017705323679 1.0780198245e-19 -1.736703676e-05
          -0.00017429833973 -9.4215758587e-20 3.7190485085e-06 -0.00017411704303 -1.061610137e-19 -2.2441774523e-20
          -0.00017429833973 2.0934974496e-19 -3.7190485085e-06 -0.00017705323679 -1.9109046794e-19 1.736703676e-05
          -0.00018047751834 -2.8484524967e-06 -1.4617150058e-05 -0.00017933064058 3.8108498127e-06 3.8108498127e-06
          -0.00017429833973 3.7190485085e-06 -1.3795059696e-19 -0.00017933064058 3.8108498127e-06 -3.8108498127e-06
          -0.00018047751834 -2.8484524967e-06 1.4617150058e-05 -0.00017151670582 -1.9438666537e-05 -1.9438666537e-05
          -0.00018047751834 -1.4617150058e-05 -2.8484524967e-06 -0.00017705323679 -1.736703676e-05 -2.9446274459e-19
          -0.00018047751834 -1.4617150058e-05 2.8484524967e-06 -0.00017151670582 -1.9438666537e-05 1.9438666537e-05
          -0.00016249272523 1.8307991428e-05 -1.8307991428e-05 -0.00017728997212 1.6927815981e-05 -9.5331903404e-06
          -0.00017446475152 1.6654347681e-05 -3.8233406329e-19 -0.00017728997212 1.6927815981e-05 9.5331903404e-06
          -0.00016249272523 1.8307991428e-05 1.8307991428e-05 -0.00017728997212 9.5331903404e-06 -1.6927815981e-05
          -0.00017927834938 3.2996454261e-06 -3.2996454261e-06 -0.00017467259599 3.8778629204e-06 -3.110782282e-19
          -0.00017927834938 3.2996454261e-06 3.2996454261e-06 -0.00017728997212 9.5331903404e-06 1.6927815981e-05
          -0.00017446475152 -5.5383693555e-20 -1.6654347681e-05 -0.00017467259599 -1.2342721087e-19 -3.8778629204e-06
          -0.00017514018675 -1.3141294109e-19 -4.0565409824e-19 -0.00017467259599 3.539467957e-19 3.8778629204e-06
          -0.00017446475152 2.3218026973e-19 1.6654347681e-05 -0.00017728997212 -9.5331903404e-06 -1.6927815981e-05
          -0.00017927834938 -3.2996454261e-06 -3.2996454261e-06 -0.00017467259599 -3.8778629204e-06 -2.0811239333e-19
          -0.00017927834938 -3.2996454261e-06 3.2996454261e-06 -0.00017728997212 -9.5331903404e-06 1.6927815981e-05
          -0.00016249272523 -1.8307991428e-05 -1.8307991428e-05 -0.00017728997212 -1.6927815981e-05 -9.5331903404e-06
          -0.00017446475152 -1.6654347681e-05 -3.6129831104e-19 -0.00017728997212 -1.6927815981e-05 9.5331903404e-06
          -0.00016249272523 -1.8307991428e-05 1.8307991428e-05 -0.00015265098236 9.3790495615e-06 -9.3790495615e-06
          -0.00016325504818 1.250092124e-05 -9.1119717829e-06 -0.00016104439932 1.1119782742e-05 1.552803167e-19
          -0.00016325504818 1.250092124e-05 9.1119717829e-06 -0.00015265098236 9.3790495615e-06 9.3790495615e-06
          -0.00016325504818 9.1119717829e-06 -1.250092124e-05 -0.00016389275907 6.3078610999e-06 -6.3078610999e-06
          -0.00015954132288 7.7764579251e-06 -1.0576516803e-19 -0.00016389275907 6.3078610999e-06 6.3078610999e-06
          -0.00016325504818 9.1119717829e-06 1.250092124e-05 -0.00016104439932 3.7591022383e-20 -1.1119782742e-05
          -0.00015954132288 1.2869061104e-19 -7.7764579251e-06 -0.00015703814626 -3.5695844568e-20 -1.7757993714e-20
          -0.00015954132288 2.0042704692e-19 7.7764579251e-06 -0.00016104439932 -3.4671378876e-19 1.1119782742e-05
          -0.00016325504818 -9.1119717829e-06 -1.250092124e-05 -0.00016389275907 -6.3078610999e-06 -6.3078610999e-06
          -0.00015954132288 -7.7764579251e-06 1.6487018703e-19 -0.00016389275907 -6.3078610999e-06 6.3078610999e-06
          -0.00016325504818 -9.1119717829e-06 1.250092124e-05 -0.00015265098236 -9.3790495615e-06 -9.3790495615e-06
          -0.00016325504818 -1.250092124e-05 -9.1119717829e-06 -0.00016104439932 -1.1119782742e-05 -2.742195803e-19
          -0.00016325504818 -1.250092124e-05 9.1119717829e-06 -0.00015265098236 -9.3790495615e-06 9.3790495615e-06
          -0.00015549384314 -9.2972180256e-07 9.2972180256e-07 -0.00016321088984 2.1028966853e-06 -5.3856367249e-06
          -0.00016190708446 5.7981108218e-07 3.0358582385e-19 -0.00016321088984 2.1028966853e-06 5.3856367249e-06
          -0.00015549384314 -9.2972180256e-07 -9.2972180256e-07 -0.00016321088984 5.3856367249e-06 -2.1028966853e-06
          -0.00016742481061 5.7512820771e-06 -5.7512820771e-06 -0.00016492641459 6.67738507e-06 -3.6125358962e-19
          -0.00016742481061 5.7512820771e-06 5.7512820771e-06 -0.00016321088984 5.3856367249e-06 2.1028966853e-06
          -0.00016190708446 -1.9200534965e-20 -5.7981108218e-07 -0.00016492641459 -1.5355874547e-19 -6.67738507e-06
          -0.00016276783012 -2.6993141531e-19 -2.8303545948e-19 -0.00016492641459 -3.8494042259e-19 6.67738507e-06
          -0.00016190708446 2.7792330045e-19 5.7981108218e-07 -0.00016321088984 -5.3856367249e-06 -2.1028966853e-06
          -0.00016742481061 -5.7512820771e-06 -5.7512820771e-06 -0.00016492641459 -6.67738507e-06 9.4215474234e-20
          -0.00016742481061 -5.7512820771e-06 5.7512820771e-06 -0.00016321088984 -5.3856367249e-06 2.1028966853e-06
          -0.00015549384314 9.2972180256e-07 9.2972180256e-07 -0.00016321088984 -2.1028966853e-06 -5.3856367249e-06
          -0.00016190708446 -5.7981108218e-07 -1.8408651474e-19 -0.00016321088984 -2.1028966853e-06 5.3856367249e-06
          -0.00015549384314 9.2972180256e-07 -9.2972180256e-07 -0.00016360155802 -8.5009327407e-06 8.5009327407e-06
          -0.00016421464032 -6.5149174994e-06 1.9055221411e-07 -0.00016425051038 -6.8709942579e-06 -2.8158009056e-19
          -0.00016421464032 -6.5149174994e-06 -1.9055221411e-07 -0.00016360155802 -8.5009327407e-06 -8.5009327407e-06
          -0.00016421464032 -1.9055221411e-07 6.5149174993e-06 -0.0001650618937 1.3554326761e-06 -1.3554326761e-06
          -0.00016414739154 1.8270715364e-06 -2.9764075823e-19 -0.0001650618937 1.3554326761e-06 1.3554326761e-06
          -0.00016421464032 -1.9055221411e-07 -6.5149174994e-06 -0.00016425051038 -3.6377395187e-19 6.8709942579e-06
          -0.00016414739154 1.4772448056e-19 -1.8270715364e-06 -0.00016241259419 -5.2848062339e-20 -2.1997875339e-19
          -0.00016414739154 -9.3644279407e-20 1.8270715364e-06 -0.00016425051038 3.4886103494e-19 -6.8709942579e-06
          -0.00016421464032 1.9055221411e-07 6.5149174993e-06 -0.0001650618937 -1.3554326761e-06 -1.3554326761e-06
          -0.00016414739154 -1.8270715364e-06 -1.7861421757e-19 -0.0001650618937 -1.3554326761e-06 1.3554326761e-06
          -0.00016421464032 1.9055221411e-07 -6.5149174993e-06 -0.00016360155802 8.5009327407e-06 8.5009327407e-06
          -0.00016421464032 6.5149174994e-06 1.9055221411e-07 -0.00016425051038 6.8709942579e-06 3.7127934316e-19
          -0.00016421464032 6.5149174993e-06 -1.9055221411e-07 -0.00016360155802 8.5009327407e-06 -8.5009327407e-06
          -0.00017397543398 -1.2320597428e-05 1.2320597428e-05 -0.00017005825541 -1.2778403336e-05 4.7142158036e-06
          -0.00017031191865 -1.1530847509e-05 1.9895416846e-19 -0.00017005825541 -1.2778403336e-05 -4.7142158036e-06
          -0.00017397543398 -1.2320597428e-05 -1.2320597428e-05 -0.00017005825541 -4.7142158036e-06 1.2778403336e-05
          -0.00016855979961 -3.6732529202e-06 3.6732529202e-06 -0.00016840734784 -3.4927895045e-06 -1.6361741126e-19
          -0.00016855979961 -3.6732529202e-06 -3.6732529202e-06 -0.00017005825541 -4.7142158036e-06 -1.2778403336e-05
          -0.00017031191865 -2.1151613585e-19 1.1530847509e-05 -0.00016840734784 -1.7700202328e-19 3.4927895045e-06
          -0.00016737110148 1.1255803806e-19 9.0693967155e-21 -0.00016840734784 4.9070392701e-19 -3.4927895045e-06
          -0.00017031191865 1.8691307865e-19 -1.1530847509e-05 -0.00017005825541 4.7142158036e-06 1.2778403336e-05
          -0.00016855979961 3.6732529202e-06 3.6732529202e-06 -0.00016840734784 3.4927895045e-06 3.3836647548e-20
          -0.00016855979961 3.6732529202e-06 -3.6732529202e-06 -0.00017005825541 4.7142158036e-06 -1.2778403336e-05
          -0.00017397543398 1.2320597428e-05 1.2320597428e-05 -0.00017005825541 1.2778403336e-05 4.7142158036e-06
          -0.00017031191865 1.1530847509e-05 -9.2166227804e-20 -0.00017005825541 1.2778403336e-05 -4.7142158036e-06
          -0.00017397543398 1.2320597428e-05 -1.2320597428e-05 -0.00018927429914 -1.0223492228e-05 1.0223492228e-05
          -0.00018549645588 -1.2452367777e-05 5.4215028978e-06 -0.00018586800285 -1.0356096702e-05 3.4718600629e-19
          -0.00018549645588 -1.2452367777e-05 -5.4215028978e-06 -0.00018927429914 -1.0223492228e-05 -1.0223492228e-05
          -0.00018549645588 -5.4215028978e-06 1.2452367777e-05 -0.00018352564401 -5.4192755127e-06 5.4192755127e-06
          -0.00018377300403 -5.4208147983e-06 1.0510500797e-19 -0.00018352564401 -5.4192755127e-06 -5.4192755127e-06
          -0.00018549645588 -5.4215028978e-06 -1.2452367777e-05 -0.00018586800285 -1.9386671503e-19 1.0356096702e-05
          -0.00018377300403 4.7741307901e-20 5.4208147983e-06 -0.00018338138895 4.0428554684e-19 -3.4233651634e-19
          -0.00018377300403 4.0783170787e-19 -5.4208147983e-06 -0.00018586800285 -1.9659086667e-19 -1.0356096702e-05
          -0.00018549645588 5.4215028978e-06 1.2452367777e-05 -0.00018352564401 5.4192755127e-06 5.4192755127e-06
          -0.00018377300403 5.4208147983e-06 -1.0225420308e-19 -0.00018352564401 5.4192755127e-06 -5.4192755127e-06
          -0.00018549645588 5.4215028978e-06 -1.2452367777e-05 -0.00018927429914 1.0223492228e-05 1.0223492228e-05
          -0.00018549645588 1.2452367777e-05 5.4215028978e-06 -0.00018586800285 1.0356096702e-05 6.6654892044e-20
          -0.00018549645588 1.2452367777e-05 -5.4215028978e-06 -0.00018927429914 1.0223492228e-05 -1.0223492228e-05
          -0.00019772137036 -7.3179547076e-06 7.3179547076e-06 -0.00019632237636 -9.820054563e-06 4.4007409894e-06
          -0.0001971073213 -7.5522044144e-06 3.1293768987e-19 -0.00019632237636 -9.820054563e-06 -4.4007409894e-06
          -0.00019772137036 -7.3179547076e-06 -7.3179547076e-06 -0.00019632237636 -4.4007409894e-06 9.820054563e-06
          -0.00019565202883 -5.130312508e-06 5.130312508e-06 -0.00019643684439 -5.0154606811e-06 -9.940313093e-20
          -0.00019565202883 -5.130312508e-06 -5.130312508e-06 -0.00019632237636 -4.4007409894e-06 -9.820054563e-06
          -0.0001971073213 1.384608393e-19 7.5522044144e-06 -0.00019643684439 1.864619865e-19 5.0154606811e-06
          -0.0001969233665 1.909809032e-19 1.5697238811e-19 -0.00019643684439 2.319537802e-20 -5.0154606811e-06
          -0.0001971073213 -3.8949126023e-19 -7.5522044144e-06 -0.00019632237636 4.4007409894e-06 9.820054563e-06
          -0.00019565202883 5.130312508e-06 5.130312508e-06 -0.00019643684439 5.0154606811e-06 -2.413470965e-19
          -0.00019565202883 5.130312508e-06 -5.130312508e-06 -0.00019632237636 4.4007409894e-06 -9.820054563e-06
          -0.00019772137036 7.3179547076e-06 7.3179547076e-06 -0.00019632237636 9.820054563e-06 4.4007409894e-06
          -0.0001971073213 7.5522044144e-06 1.6319025305e-19 -0.00019632237636 9.820054563e-06 -4.4007409894e-06
          -0.00019772137036 7.3179547076e-06 -7.3179547076e-06 -0.00020051719886 -3.4859662084e-06 3.4859662084e-06
          -0.00020288375593 -5.1315628244e-06 2.0498914162e-06 -0.00020443173833 -3.5488501682e-06 3.6904295389e-19
          -0.00020288375593 -5.1315628244e-06 -2.0498914162e-06 -0.00020051719886 -3.4859662084e-06 -3.4859662084e-06
          -0.00020288375593 -2.0498914162e-06 5.1315628244e-06 -0.00020522466187 -2.8558586622e-06 2.8558586622e-06
          -0.00020680951815 -2.6599205454e-06 2.0773914138e-19 -0.00020522466187 -2.8558586622e-06 -2.8558586622e-06
          -0.00020288375593 -2.0498914162e-06 -5.1315628244e-06 -0.00020443173833 -3.7482477125e-20 3.5488501682e-06
          -0.00020680951815 -7.3032669126e-20 2.6599205454e-06 -0.00020844982837 1.1330491765e-20 3.5468895405e-19
          -0.00020680951815 1.4428753299e-19 -2.6599205454e-06 -0.00020443173833 2.5138154684e-19 -3.5488501682e-06
          -0.00020288375593 2.0498914162e-06 5.1315628244e-06 -0.00020522466187 2.8558586622e-06 2.8558586622e-06
          -0.00020680951815 2.6599205454e-06 -5.0254394822e-19 -0.00020522466187 2.8558586622e-06 -2.8558586622e-06
          -0.00020288375593 2.0498914162e-06 -5.1315628244e-06 -0.00020051719886 3.4859662084e-06 3.4859662084e-06
          -0.00020288375593 5.1315628244e-06 2.0498914162e-06 -0.00020443173833 3.5488501682e-06 2.4142146031e-20
          -0.00020288375593 5.1315628244e-06 -2.0498914162e-06 -0.00020051719886 3.4859662084e-06 -3.4859662084e-06
          -0.0001994516246 4.4143485288e-07 -4.4143485288e-07 -0.00020415594954 3.0823544878e-07 -3.1809738469e-07
          -0.00020628195316 7.2628633167e-07 7.8730043833e-20 -0.00020415594954 3.0823544878e-07 3.1809738469e-07