<?xml version="1.0"?>
<VTKFile type="UnstructuredGrid" version="0.1" byte_order="LittleEndian" compressor="vtkZLibDataCompressor">
  <UnstructuredGrid>
    <Piece NumberOfPoints="525" NumberOfCells="525">
      <PointData>
        <DataArray type="Float64" Name="Damage" format="ascii" RangeMin="0" RangeMax="0">
          0 0 0 0 0 0
          0 0 0 0 0 0
          0 0 0 0 0 0
          0 0 0 0 0 0
          0 0 0 0 0 0
          0 0 0 0 0 0
          0 0 0 0 0 0
          0 0 0 0 0 0
          0 0 0 0 0 0
          0 0 0 0 0 0
          0 0 0 0 0 0
          0 0 0 0 0 0
          0 0 0 0 0 0
          0 0 0 0 0 0
          0 0 0 0 0 0
          0 0 0 0 0 0
          0 0 0 0 0 0
          0 0 0 0 0 0
          0 0 0 0 0 0
          0 0 0 0 0 0
          0 0 0 0 0 0
          0 0 0 0 0 0
          0 0 0 0 0 0
          0 0 0 0 0 0
          0 0 0 0 0 0
          0 0 0 0 0 0
          0 0 0 0 0 0
          0 0 0 0 0 0
          0 0 0 0 0 0
          0 0 0 0 0 0
          0 0 0 0 0 0
          0 0 0 0 0 0
          0 0 0 0 0 0
          0 0 0 0 0 0
          0 0 0 0 0 0
          0 0 0 0 0 0
          0 0 0 0 0 0
          0 0 0 0 0 0
          0 0 0 0 0 0
          0 0 0 0 0 0
          0 0 0 0 0 0
          0 0 0 0 0 0
          0 0 0 0 0 0
          0 0 0 0 0 0
          0 0 0 0 0 0
          0 0 0 0 0 0
          0 0 0 0 0 0
          0 0 0 0 0 0
          0 0 0 0 0 0
          0 0 0 0 0 0
          0 0 0 0 0 0
          0 0 0 0 0 0
          0 0 0 0 0 0
          0 0 0 0 0 0
          0 0 0 0 0 0
          0 0 0 0 0 0
          0 0 0 0 0 0
          0 0 0 0 0 0
          0 0 0 0 0 0
          0 0 0 0 0 0
          0 0 0 0 0 0
          0 0 0 0 0 0
          0 0 0 0 0 0
          0 0 0 0 0 0
          0 0 0 0 0 0
          0 0 0 0 0 0
          0 0 0 0 0 0
          0 0 0 0 0 0
          0 0 0 0 0 0
          0 0 0 0 0 0
          0 0 0 0 0 0
          0 0 0 0 0 0
          0 0 0 0 0 0
          0 0 0 0 0 0
          0 0 0 0 0 0
          0 0 0 0 0 0
          0 0 0 0 0 0
          0 0 0 0 0 0
          0 0 0 0 0 0
          0 0 0 0 0 0
          0 0 0 0 0 0
          0 0 0 0 0 0
          0 0 0 0 0 0
          0 0 0 0 0 0
          0 0 0 0 0 0
          0 0 0 0 0 0
          0 0 0 0 0 0
          0 0 0
        </DataArray>
        <DataArray type="Float64" Name="Dilatation" format="ascii" RangeMin="-0.0079539626793" RangeMax="0.010098171527">
          -0.0010035833371 0.0011983158366 0.004161008305 0.0011983158366 -0.0010035833371 0.0011983158366
          0.0021321424546 0.0013397173323 0.0021321424546 0.0011983158366 0.004161008305 0.0013397173323
          0.0020798421466 0.0013397173323 0.004161008305 0.0011983158366 0.0021321424546 0.0013397173323
          0.0021321424546 0.0011983158366 -0.0010035833371 0.0011983158366 0.004161008305 0.0011983158366
          -0.0010035833371 0.0044678076668 0.0013950093653 0.0042492470542 0.0013950093653 0.0044678076668
          0.0013950093653 -0.00082577572735 0.00095218112879 -0.00082577572735 0.0013950093653 0.0042492470542
          0.00095218112879 0.0030360861304 0.00095218112879 0.0042492470542 0.0013950093653 -0.00082577572735
          0.00095218112879 -0.00082577572735 0.0013950093653 0.0044678076668 0.0013950093653 0.0042492470542
          0.0013950093653 0.0044678076668 0.010098171527 0.0035251235876 0.004771972068 0.0035251235876
          0.010098171527 0.0035251235876 -0.00207907022 0.00040914084657 -0.00207907022 0.0035251235876
          0.004771972068 0.00040914084657 0.0030950650706 0.00040914084657 0.004771972068 0.0035251235876
          -0.00207907022 0.00040914084657 -0.00207907022 0.0035251235876 0.010098171527 0.0035251235876
          0.004771972068 0.0035251235876 0.010098171527 0.0083528780592 0.0050859669973 0.0053539849433
          0.0050859669973 0.0083528780592 0.0050859669973 -0.00014842145626 0.0017847067861 -0.00014842145626
          0.0050859669973 0.0053539849433 0.0017847067861 0.0031192332058 0.0017847067861 0.0053539849433
          0.0050859669973 -0.00014842145626 0.0017847067861 -0.00014842145626 0.0050859669973 0.0083528780592
          0.0050859669973 0.0053539849433 0.0050859669973 0.0083528780592 0.0029171292977 0.0032237436184
          0.0024391644855 0.0032237436184 0.0029171292977 0.0032237436184 0.0014601947866 0.0020624747735
          0.0014601947866 0.0032237436184 0.0024391644855 0.0020624747735 0.0019270838371 0.0020624747735
          0.0024391644855 0.0032237436184 0.0014601947866 0.0020624747735 0.0014601947866 0.0032237436184
          0.0029171292977 0.0032237436184 0.0024391644855 0.0032237436184 0.0029171292977 -0.0015091039004
          0.0015046108333 0.0004388781705 0.0015046108333 -0.0015091039004 0.0015046108333 0.0029580564717
          0.0024130572912 0.0029580564717 0.0015046108333 0.0004388781705 0.0024130572912 0.001241977535
          0.0024130572912 0.0004388781705 0.0015046108333 0.0029580564717 0.0024130572912 0.0029580564717
          0.0015046108333 -0.0015091039004 0.0015046108333 0.0004388781705 0.0015046108333 -0.0015091039004
          -0.0051966068185 -0.0013739044183 -0.0016315265547 -0.0013739044183 -0.0051966068185 -0.0013739044183
          0.0020970337406 0.0011912247886 0.0020970337406 -0.0013739044183 -0.0016315265547 0.0011912247886
          -7.5718849873e-05 0.0011912247886 -0.0016315265547 -0.0013739044183 0.0020970337406 0.0011912247886
          0.0020970337406 -0.0013739044183 -0.0051966068185 -0.0013739044183 -0.0016315265547 -0.0013739044183
          -0.0051966068185 -0.0044985466419 -0.0019600223104 -0.0016379668604 -0.0019600223104 -0.0044985466419
          -0.0019600223104 0.00087136517608 0.00016540958408 0.00087136517608 -0.0019600223104 -0.0016379668604
          0.00016540958408 -0.00054512081229 0.00016540958408 -0.0016379668604 -0.0019600223104 0.00087136517608
          0.00016540958408 0.00087136517608 -0.0019600223104 -0.0044985466419 -0.0019600223104 -0.0016379668604
          -0.0019600223104 -0.0044985466419 -0.0038721620833 -0.0032907470638 -0.0022373969989 -0.0032907470638
          -0.0038721620833 -0.0032907470638 -0.00226616968 -0.0019896526518 -0.00226616968 -0.0032907470638
          -0.0022373969989 -0.0019896526518 -0.0015841727359 -0.0019896526518 -0.0022373969989 -0.0032907470638
          -0.00226616968 -0.0019896526518 -0.00226616968 -0.0032907470638 -0.0038721620833 -0.0032907470638
          -0.0022373969989 -0.0032907470638 -0.0038721620833 -0.0016367963796 -0.002962909076 -0.0019581060162
          -0.002962909076 -0.0016367963796 -0.002962909076 -0.0040885199303 -0.0032356203014 -0.0040885199303
          -0.002962909076 -0.0019581060162 -0.0032356203014 -0.0020307423277 -0.0032356203014 -0.0019581060162
          -0.002962909076 -0.0040885199303 -0.0032356203014 -0.0040885199303 -0.002962909076 -0.0016367963796
          -0.002962909076 -0.0019581060162 -0.002962909076 -0.0016367963796 -0.0016229760881 -0.0033603607323
          -0.0024811816388 -0.0033603607323 -0.0016229760881 -0.0033603607323 -0.0056433054166 -0.0043298915759
          -0.0056433054166 -0.0033603607323 -0.0024811816388 -0.0043298915759 -0.0026219342967 -0.0043298915759
          -0.0024811816388 -0.0033603607323 -0.0056433054166 -0.0043298915759 -0.0056433054166 -0.0033603607323
          -0.0016229760881 -0.0033603607323 -0.0024811816388 -0.0033603607323 -0.0016229760881 -0.003284730831
          -0.0047169764467 -0.0039592660751 -0.0047169764467 -0.003284730831 -0.0047169764467 -0.0073174122495
          -0.0057372993207 -0.0073174122495 -0.0047169764467 -0.0039592660751 -0.0057372993207 -0.003806752349
          -0.0057372993207 -0.0039592660751 -0.0047169764467 -0.0073174122495 -0.0057372993207 -0.0073174122495
          -0.0047169764467 -0.003284730831 -0.0047169764467 -0.0039592660751 -0.0047169764467 -0.003284730831
          -0.0044827780388 -0.0054569924033 -0.0047990071489 -0.0054569924033 -0.0044827780388 -0.0054569924033
          -0.0079539626793 -0.0063092903403 -0.0079539626793 -0.0054569924033 -0.0047990071489 -0.0063092903403
          -0.0043296000189 -0.0063092903403 -0.0047990071489 -0.0054569924033 -0.0079539626793 -0.0063092903403
          -0.0079539626793 -0.0054569924033 -0.0044827780388 -0.0054569924033 -0.0047990071489 -0.0054569924033
          -0.0044827780388 -0.0047875973148 -0.0055028168603 -0.00488397226 -0.0055028168603 -0.0047875973148
          -0.0055028168603 -0.0077206662338 -0.0061311525991 -0.0077206662338 -0.0055028168603 -0.00488397226
          -0.0061311525991 -0.0042431530541 -0.0061311525991 -0.00488397226 -0.0055028168603 -0.0077206662338
          -0.0061311525991 -0.0077206662338 -0.0055028168603 -0.0047875973148 -0.0055028168603 -0.00488397226
          -0.0055028168603 -0.0047875973148 -0.0039228958969 -0.0045310635067 -0.0039873924638 -0.0045310635067
          -0.0039228958969 -0.0045310635067 -0.0063571080196 -0.0049936647772 -0.0063571080196 -0.0045310635067
          -0.0039873924638 -0.0049936647772 -0.0033531461947 -0.0049936647772 -0.0039873924638 -0.0045310635067
          -0.0063571080196 -0.0049936647772 -0.0063571080196 -0.0045310635067 -0.0039228958969 -0.0045310635067
          -0.0039873924638 -0.0045310635067 -0.0039228958969 -0.0024477502857 -0.0031796249164 -0.0028025882989
          -0.0031796249164 -0.0024477502857 -0.0031796249164 -0.0046671614327 -0.0035671575907 -0.0046671614327
          -0.0031796249164 -0.0028025882989 -0.0035671575907 -0.002251347207 -0.0035671575907 -0.0028025882989
          -0.0031796249164 -0.0046671614327 -0.0035671575907 -0.0046671614327 -0.0031796249164 -0.0024477502857
          -0.0031796249164 -0.0028025882989 -0.0031796249164 -0.0024477502857 -0.0020631402076 -0.0024899830027
          -0.0021493957512 -0.0024899830027 -0.0020631402076 -0.0024899830027 -0.0028931093268 -0.0020996319041
          -0.0028931093268 -0.0024899830027 -0.0021493957512 -0.0020996319041 -0.0011341564016 -0.0020996319041
          -0.0021493957512 -0.0024899830027 -0.0028931093268 -0.0020996319041 -0.0028931093268 -0.0024899830027
          -0.0020631402076 -0.0024899830027 -0.0021493957512 -0.0024899830027 -0.0020631402076 -0.0017086397743
          -0.002184572028 -0.0023509195639 -0.002184572028 -0.0017086397743 -0.002184572028 -0.0027598959161
          -0.002956908003 -0.0027598959161 -0.002184572028 -0.0023509195639 -0.002956908003 -0.0030749942867
          -0.002956908003 -0.0023509195639 -0.002184572028 -0.0027598959161 -0.002956908003 -0.0027598959161
          -0.002184572028 -0.0017086397743 -0.002184572028 -0.0023509195639 -0.002184572028 -0.0017086397743
          -0.0024528995578 -0.0012677751065 0.00029516867895 -0.0012677751065 -0.0024528995578 -0.0012677751065
          -0.0022904984417 -0.00034977558409 -0.0022904984417 -0.0012677751065 0.00029516867895 -0.00034977558409
          0.0050691030729 -0.00034977558409 0.00029516867895 -0.0012677751065 -0.0022904984417 -0.00034977558409
          -0.0022904984417 -0.0012677751065 -0.0024528995578 -0.0012677751065 0.00029516867895 -0.0012677751065
          -0.0024528995578 -0.0011072343296 0.0012589678028 0.0019869069323 0.0012589678028 -0.0011072343296
          0.0012589678028 0.0046173167417 0.0031845880473 0.0046173167417 0.0012589678028 0.0019869069323
          0.0031845880473 0.0035408456867 0.0031845880473 0.0019869069323 0.0012589678028 0.0046173167417
          0.0031845880473 0.0046173167417 0.0012589678028 -0.0011072343296 0.0012589678028 0.0019869069323
          0.0012589678028 -0.0011072343296 -8.2783972393e-05 0.0010944753877 0.00070087481779 0.0010944753877
          -8.2783972393e-05 0.0010944753877 0.0048206561095 0.0021955770243 0.0048206561095 0.0010944753877
          0.00070087481779 0.0021955770243 0.00094324420988 0.0021955770243 0.00070087481779 0.0010944753877
          0.0048206561095 0.0021955770243 0.0048206561095 0.0010944753877 -8.2783972393e-05 0.0010944753877
          0.00070087481779 0.0010944753877 -8.2783972393e-05
        </DataArray>
        <DataArray type="Float64" Name="Displacement" NumberOfComponents="3" format="ascii" RangeMin="0.00015164267006" RangeMax="0.00033103191265">
          -0.0001816547415 1.0871691365e-06 -1.0871691365e-06 -0.00016767968134 -3.9597416128e-06 -3.609590244e-06
          -0.00016250579506 -1.2313987476e-05 -4.7991146243e-19 -0.00016767968134 -3.9597416128e-06 3.609590244e-06
          -0.0001816547415 1.0871691365e-06 1.0871691365e-06 -0.00016767968134 3.609590244e-06 3.9597416128e-06
          -0.00015524275425 -3.5313739772e-06 3.5313739772e-06 -0.00015437677713 2.8023537057e-06 -4.5168417422e-19
          -0.00015524275425 -3.5313739772e-06 -3.5313739772e-06 -0.00016767968134 3.609590244e-06 -3.9597416128e-06
          -0.00016250579506 1.1535834703e-19 1.2313987476e-05 -0.00015437677713 1.1879908907e-19 -2.8023537057e-06
          -0.00015164267006 -8.866549113e-21 2.1151026107e-20 -0.00015437677713 -9.500564951e-21 2.8023537057e-06
          -0.00016250579506 -3.5705572903e-19 -1.2313987476e-05 -0.00016767968134 -3.609590244e-06 3.9597416128e-06
          -0.00015524275425 3.5313739772e-06 3.5313739772e-06 -0.00015437677713 -2.8023537057e-06 -4.8949376798e-19
          -0.00015524275425 3.5313739772e-06 -3.5313739772e-06 -0.00016767968134 -3.609590244e-06 -3.9597416128e-06
          -0.0001816547415 -1.0871691365e-06 -1.0871691365e-06 -0.00016767968134 3.9597416128e-06 -3.609590244e-06
          -0.00016250579506 1.2313987476e-05 -3.490165542e-19 -0.00016767968134 3.9597416128e-06 3.609590244e-06
          -0.0001816547415 -1.0871691365e-06 1.0871691365e-06 -0.0001921584217 -1.0548696046e-05 1.0548696046e-05
          -0.00017853010596 -6.871066924e-06 -2.4440080818e-06 -0.0001780694997 -1.2902541531e-05 -2.1118796474e-19
          -0.00017853010596 -6.871066924e-06 2.4440080818e-06 -0.0001921584217 -1.0548696046e-05 -1.0548696046e-05
          -0.00017853010596 2.4440080818e-06 6.871066924e-06 -0.00017398642778 5.1542758414e-06 -5.1542758414e-06
          -0.00017761227938 8.0769613897e-06 -2.779320263e-19 -0.00017398642778 5.1542758414e-06 5.1542758414e-06
          -0.00017853010596 2.4440080818e-06 -6.871066924e-06 -0.0001780694997 5.2016878904e-19 1.2902541531e-05
          -0.00017761227938 -2.5511415738e-19 -8.0769613897e-06 -0.00017165818398 -2.9904294583e-19 -1.4782510078e-20
          -0.00017761227938 -6.6224896112e-20 8.0769613897e-06 -0.0001780694997 -1.4042444233e-19 -1.2902541531e-05
          -0.00017853010596 -2.4440080818e-06 6.871066924e-06 -0.00017398642778 -5.1542758414e-06 -5.1542758414e-06
          -0.00017761227938 -8.0769613897e-06 -5.5215054618e-20 -0.00017398642778 -5.1542758414e-06 5.1542758414e-06
          -0.00017853010596 -2.4440080818e-06 -6.871066924e-06 -0.0001921584217 1.0548696046e-05 1.0548696046e-05
          -0.00017853010596 6.871066924e-06 -2.4440080818e-06 -0.0001780694997 1.2902541531e-05 -3.2893357662e-19
          -0.00017853010596 6.871066924e-06 2.4440080818e-06 -0.0001921584217 1.0548696046e-05 -1.0548696046e-05
          -0.00018341812437 -2.1524577847e-05 2.1524577847e-05 -0.00016711625345 -1.3412106055e-05 4.5009460735e-06
          -0.00016935376538 -1.6044916925e-05 -4.8190929134e-20 -0.00016711625345 -1.3412106055e-05 -4.5009460735e-06
          -0.00018341812437 -2.1524577847e-05 -2.1524577847e-05 -0.00016711625345 -4.5009460735e-06 1.3412106055e-05
          -0.00016915426076 6.2017895215e-06 -6.2017895215e-06 -0.00017517659338 7.4466176024e-06 -4.2435296928e-19
          -0.00016915426076 6.2017895215e-06 6.2017895215e-06 -0.00016711625345 -4.5009460735e-06 -1.3412106055e-05
          -0.00016935376538 -5.1350895356e-19 1.6044916925e-05 -0.00017517659338 1.4253243845e-20 -7.4466176024e-06
          -0.0001761070824 -2.9500213016e-19 -1.9076195474e-19 -0.00017517659338 -4.0041245872e-19 7.4466176024e-06
          -0.00016935376538 1.340481766e-19 -1.6044916925e-05 -0.00016711625345 4.5009460735e-06 1.3412106055e-05
          -0.00016915426076 -6.2017895215e-06 -6.2017895215e-06 -0.00017517659338 -7.4466176024e-06 -2.4707557055e-19
          -0.00016915426076 -6.2017895215e-06 6.2017895215e-06 -0.00016711625345 4.5009460735e-06 -1.3412106055e-05
          -0.00018341812437 2.1524577847e-05 2.1524577847e-05 -0.00016711625345 1.3412106055e-05 4.5009460735e-06
          -0.00016935376538 1.6044916925e-05 2.4729962824e-19 -0.00016711625345 1.3412106055e-05 -4.5009460735e-06
          -0.00018341812437 2.1524577847e-05 -2.1524577847e-05 -0.00018387943651 -1.6659450012e-05 1.6659450012e-05
          -0.00017201789256 -1.4715372986e-05 6.8761591144e-06 -0.00017660670643 -1.6542230385e-05 3.6428513113e-19
          -0.00017201789256 -1.4715372986e-05 -6.8761591144e-06 -0.00018387943651 -1.6659450012e-05 -1.6659450012e-05
          -0.00017201789256 -6.8761591144e-06 1.4715372986e-05 -0.00017111896593 2.9079010043e-06 -2.9079010043e-06
          -0.00017870776937 1.1596538466e-06 6.0197427024e-20 -0.00017111896593 2.9079010043e-06 2.9079010043e-06
          -0.00017201789256 -6.8761591144e-06 -1.4715372986e-05 -0.00017660670643 1.5230857625e-19 1.6542230385e-05
          -0.00017870776937 3.5190959505e-19 -1.1596538466e-06 -0.00018186333461 -1.335553864e-19 -2.8683710559e-19
          -0.00017870776937 8.7606076566e-20 1.1596538466e-06 -0.00017660670643 3.8932320275e-19 -1.6542230385e-05
          -0.00017201789256 6.8761591144e-06 1.4715372986e-05 -0.00017111896593 -2.9079010043e-06 -2.9079010043e-06
          -0.00017870776937 -1.1596538466e-06 1.8281812959e-19 -0.00017111896593 -2.9079010043e-06 2.9079010043e-06
          -0.00017201789256 6.8761591144e-06 -1.4715372986e-05 -0.00018387943651 1.6659450012e-05 1.6659450012e-05
          -0.00017201789256 1.4715372986e-05 6.8761591144e-06 -0.00017660670643 1.6542230385e-05 -1.0527732657e-19
          -0.00017201789256 1.4715372986e-05 -6.8761591144e-06 -0.00018387943651 1.6659450012e-05 -1.6659450012e-05
          -0.00018996465599 -5.2779531905e-06 5.2779531905e-06 -0.00017589933454 -5.73397929e-06 8.4574775955e-06
          -0.0001790210589 -5.6766385848e-06 -3.0564524704e-19 -0.00017589933454 -5.73397929e-06 -8.4574775955e-06
          -0.00018996465599 -5.2779531905e-06 -5.2779531905e-06 -0.00017589933454 -8.4574775955e-06 5.73397929e-06
          -0.00017220217915 -1.1236946686e-06 1.1236946686e-06 -0.00017818266544 -2.8478265646e-06 -4.6307253879e-19
          -0.00017220217915 -1.1236946686e-06 -1.1236946686e-06 -0.00017589933454 -8.4574775955e-06 -5.73397929e-06
          -0.0001790210589 3.2874787208e-19 5.6766385848e-06 -0.00017818266544 4.9246130168e-19 2.8478265646e-06
          -0.0001814357527 -4.742314154e-20 -1.7291285288e-19 -0.00017818266544 1.9827318111e-19 -2.8478265646e-06
          -0.0001790210589 -5.5725496054e-20 -5.6766385848e-06 -0.00017589933454 8.4574775955e-06 5.73397929e-06
          -0.00017220217915 1.1236946686e-06 1.1236946686e-06 -0.00017818266544 2.8478265646e-06 4.5535139265e-19
          -0.00017220217915 1.1236946686e-06 -1.1236946686e-06 -0.00017589933454 8.4574775955e-06 -5.73397929e-06
          -0.00018996465599 5.2779531905e-06 5.2779531905e-06 -0.00017589933454 5.73397929e-06 8.4574775955e-06
          -0.0001790210589 5.6766385848e-06 -4.6559932728e-20 -0.00017589933454 5.73397929e-06 -8.4574775955e-06
          -0.00018996465599 5.2779531905e-06 -5.2779531905e-06 -0.0001888678646 5.6547699376e-06 -5.6547699376e-06
          -0.00018073663661 2.5671503468e-06 5.2948309938e-06 -0.00018092670992 3.189293728e-06 -1.6010093206e-19
          -0.00018073663661 2.5671503468e-06 -5.2948309938e-06 -0.0001888678646 5.6547699376e-06 5.6547699376e-06
          -0.00018073663661 -5.2948309938e-06 -2.5671503468e-06 -0.00017867330383 -3.2504679731e-06 3.2504679731e-06
          -0.00018180126508 -5.0949934153e-06 -1.455514581e-19 -0.00017867330383 -3.2504679731e-06 -3.2504679731e-06
          -0.00018073663661 -5.2948309938e-06 2.5671503468e-06 -0.00018092670992 1.2867990677e-20 -3.189293728e-06
          -0.00018180126508 -4.4212683575e-20 5.0949934153e-06 -0.00018522684952 -3.3547420106e-19 -4.5434522484e-19
          -0.00018180126508 -1.4449634611e-19 -5.0949934153e-06 -0.00018092670992 -1.6429421643e-19 3.189293728e-06
          -0.00018073663661 5.2948309938e-06 -2.5671503468e-06 -0.00017867330383 3.2504679731e-06 3.2504679731e-06
          -0.00018180126508 5.0949934153e-06 -1.1607999347e-19 -0.00017867330383 3.2504679731e-06 -3.2504679731e-06
          -0.00018073663661 5.2948309938e-06 2.5671503468e-06 -0.0001888678646 -5.6547699376e-06 -5.6547699376e-06
          -0.00018073663661 -2.5671503468e-06 5.2948309938e-06 -0.00018092670992 -3.189293728e-06 -2.7698567901e-19
          -0.00018073663661 -2.5671503468e-06 -5.2948309938e-06 -0.0001888678646 -5.6547699376e-06 5.6547699376e-06
          -0.00018236858217 1.3409727584e-05 -1.3409727584e-05 -0.00017464995921 1.0450851599e-05 -2.2791661086e-07
          -0.00017164811109 1.0098552197e-05 -4.7858332876e-19 -0.00017464995921 1.0450851599e-05 2.2791661086e-07
          -0.00018236858217 1.3409727584e-05 1.3409727584e-05 -0.00017464995921 2.2791661086e-07 -1.0450851599e-05
          -0.00016591344935 -1.937150744e-06 1.937150744e-06 -0.00016458824355 -2.4668550435e-06 2.063937985e-19
          -0.00016591344935 -1.937150744e-06 -1.937150744e-06 -0.00017464995921 2.2791661086e-07 1.0450851599e-05
          -0.00017164811109 -2.5782964625e-19 -1.0098552197e-05 -0.00016458824355 7.7925231504e-21 2.4668550435e-06
          -0.00016531180756 -4.5354420261e-19 1.5906261598e-19 -0.00016458824355 9.1642968115e-20 -2.4668550435e-06
          -0.00017164811109 -3.4303149787e-19 1.0098552197e-05 -0.00017464995921 -2.2791661086e-07 -1.0450851599e-05
          -0.00016591344935 1.937150744e-06 1.937150744e-06 -0.00016458824355 2.4668550435e-06 3.2961247788e-19
          -0.00016591344935 1.937150744e-06 -1.937150744e-06 -0.00017464995921 -2.2791661086e-07 1.0450851599e-05
          -0.00018236858217 -1.3409727584e-05 -1.3409727584e-05 -0.00017464995921 -1.0450851599e-05 -2.2791661086e-07
          -0.00017164811109 -1.0098552197e-05 -1.0920391142e-19 -0.00017464995921 -1.0450851599e-05 2.2791661086e-07
          -0.00018236858217 -1.3409727584e-05 1.3409727584e-05 -0.00017333330377 1.0914228901e-05 -1.0914228901e-05
          -0.00017079688421 8.8036202085e-06 -2.9543939757e-06 -0.00016530983807 8.0018796755e-06 -3.3634086777e-19
          -0.00017079688421 8.8036202085e-06 2.9543939757e-06 -0.00017333330377 1.0914228901e-05 1.0914228901e-05
          -0.00017079688421 2.9543939757e-06 -8.8036202085e-06 -0.00016399025144 -4.4241464101e-07 4.4241464101e-07
          -0.00015956584973 2.2837287069e-07 -3.1554046805e-20 -0.00016399025144 -4.4241464101e-07 -4.4241464101e-07
          -0.00017079688421 2.9543939757e-06 8.8036202085e-06 -0.00016530983807 -2.4319718247e-19 -8.0018796755e-06
          -0.00015956584973 -2.9916920753e-19 -2.2837287069e-07 -0.00015758173685 -2.7443646683e-20 4.5972139874e-19
          -0.00015956584973 -4.1838363584e-19 2.2837287069e-07 -0.00016530983807 3.1302595017e-19 8.0018796755e-06
          -0.00017079688421 -2.9543939757e-06 -8.8036202085e-06 -0.00016399025144 4.4241464101e-07 4.4241464101e-07
          -0.00015956584973 -2.2837287069e-07 5.1677358839e-20 -0.00016399025144 4.4241464101e-07 -4.4241464101e-07
          -0.00017079688421 -2.9543939757e-06 8.8036202085e-06 -0.00017333330377 -1.0914228901e-05 -1.0914228901e-05
          -0.00017079688421 -8.8036202085e-06 -2.9543939757e-06 -0.00016530983807 -8.0018796755e-06 2.4239670352e-19
          -0.00017079688421 -8.8036202085e-06 2.9543939757e-06 -0.00017333330377 -1.0914228901e-05 1.0914228901e-05
          -0.00017234192445 3.854341886e-06 -3.854341886e-06 -0.00017300024293 3.0996711759e-06 -3.6675156679e-06
          -0.00016785438723 2.0544136321e-06 1.0688333935e-19 -0.00017300024293 3.0996711759e-06 3.6675156679e-06
          -0.00017234192445 3.854341886e-06 3.854341886e-06 -0.00017300024293 3.6675156679e-06 -3.0996711759e-06
          -0.00016840895596 1.2315692691e-06 -1.2315692691e-06 -0.00016365012106 2.3261574156e-06 -2.5699179747e-20
          -0.00016840895596 1.2315692691e-06 1.2315692691e-06 -0.00017300024293 3.6675156679e-06 3.0996711759e-06
          -0.00016785438723 -1.2801759738e-19 -2.0544136321e-06 -0.00016365012106 -3.7218989732e-19 -2.3261574156e-06
          -0.00016058411404 -2.7156309327e-19 3.0176150173e-19 -0.00016365012106 -9.8207396739e-20 2.3261574156e-06
          -0.00016785438723 -1.0582480365e-19 2.0544136321e-06 -0.00017300024293 -3.6675156679e-06 -3.0996711759e-06
          -0.00016840895596 -1.2315692691e-06 -1.2315692691e-06 -0.00016365012106 -2.3261574156e-06 1.4937462793e-19
          -0.00016840895596 -1.2315692691e-06 1.2315692691e-06 -0.00017300024293 -3.6675156679e-06 3.0996711759e-06
          -0.00017234192445 -3.854341886e-06 -3.854341886e-06 -0.00017300024293 -3.0996711759e-06 -3.6675156679e-06
          -0.00016785438723 -2.0544136321e-06 -7.6965621339e-20 -0.00017300024293 -3.0996711759e-06 3.6675156679e-06
          -0.00017234192445 -3.854341886e-06 3.854341886e-06 -0.00017258192262 -7.52884079e-06 7.52884079e-06
          -0.00017227331209 -7.4101148573e-06 -9.2380770865e-08 -0.00016859181595 -7.4754828168e-06 2.6052124089e-19
          -0.00017227331209 -7.4101148573e-06 9.2380770865e-08 -0.00017258192262 -7.52884079e-06 -7.52884079e-06
          -0.00017227331209 9.2380770865e-08 7.4101148573e-06 -0.00016907040856 -8.5551587303e-07 8.5551587303e-07
          -0.00016546819894 5.3191515454e-07 2.1427524395e-19 -0.00016907040856 -8.5551587303e-07 -8.5551587303e-07
          -0.00017227331209 9.2380770864e-08 -7.4101148573e-06 -0.00016859181595 -1.6989418915e-19 7.4754828168e-06
          -0.00016546819894 -2.0576081755e-19 -5.3191515454e-07 -0.00016266168557 -2.1464506279e-19 1.6133300217e-20
          -0.00016546819894 2.3868399822e-20 5.3191515454e-07 -0.00016859181595 5.9040184366e-20 -7.4754828168e-06
          -0.00017227331209 -9.2380770865e-08 7.4101148573e-06 -0.00016907040856 8.5551587303e-07 8.5551587303e-07
          -0.00016546819894 -5.3191515454e-07 1.9210894508e-19 -0.00016907040856 8.5551587303e-07 -8.5551587303e-07
          -0.00017227331209 -9.2380770865e-08 -7.4101148573e-06 -0.00017258192262 7.52884079e-06 7.52884079e-06
          -0.00017227331209 7.4101148573e-06 -9.2380770865e-08 -0.00016859181595 7.4754828168e-06 1.5415266065e-19
          -0.00017227331209 7.4101148573e-06 9.2380770865e-08 -0.00017258192262 7.52884079e-06 -7.52884079e-06
          -0.00018640978407 -1.5344877382e-05 1.5344877382e-05 -0.00018485210948 -1.5929265279e-05 3.5555687343e-06
          -0.00018266241717 -1.4736679414e-05 9.0313068418e-20 -0.00018485210948 -1.5929265279e-05 -3.5555687343e-06
          -0.00018640978407 -1.5344877382e-05 -1.5344877382e-05 -0.00018485210948 -3.5555687343e-06 1.5929265279e-05
          -0.00018288110391 -3.7026968798e-06 3.7026968798e-06 -0.00018069794983 -2.4702985493e-06 2.9654087954e-19
          -0.00018288110391 -3.7026968798e-06 -3.7026968798e-06 -0.00018485210948 -3.5555687343e-06 -1.5929265279e-05
          -0.00018266241717 -7.9720411136e-20 1.4736679414e-05 -0.00018069794983 2.7085959635e-19 2.4702985493e-06
          -0.00017871497989 -2.3481017108e-19 -2.35841963e-19 -0.00018069794983 -3.2681079712e-19 -2.4702985493e-06
          -0.00018266241717 -6.8135445916e-20 -1.4736679414e-05 -0.00018485210948 3.5555687343e-06 1.5929265279e-05
          -0.00018288110391 3.7026968798e-06 3.7026968798e-06 -0.00018069794983 2.4702985493e-06 -3.5881627434e-19
          -0.00018288110391 3.7026968798e-06 -3.7026968798e-06 -0.00018485210948 3.5555687343e-06 -1.5929265279e-05
          -0.00018640978407 1.5344877382e-05 1.5344877382e-05 -0.00018485210948 1.5929265279e-05 3.5555687343e-06
          -0.00018266241717 1.4736679414e-05 -4.3825930522e-19 -0.00018485210948 1.5929265279e-05 -3.5555687343e-06
          -0.00018640978407 1.5344877382e-05 -1.5344877382e-05 -0.00020900986275 -1.9652426991e-05 1.9652426991e-05
          -0.00020553681024 -2.1443379897e-05 6.6099981305e-06 -0.0002042194292 -1.8922326108e-05 -1.7318331125e-19
          -0.00020553681024 -2.1443379897e-05 -6.6099981305e-06 -0.00020900986275 -1.9652426991e-05 -1.9652426991e-05
          -0.00020553681024 -6.6099981305e-06 2.1443379897e-05 -0.00020271185687 -6.8218231175e-06 6.8218231175e-06
          -0.00020139529637 -5.7104500355e-06 1.6315188022e-19 -0.00020271185687 -6.8218231175e-06 -6.8218231175e-06
          -0.00020553681024 -6.6099981305e-06 -2.1443379897e-05 -0.0002042194292 -5.8486283865e-20 1.8922326108e-05
          -0.00020139529637 8.0211194305e-21 5.7104500355e-06 -0.00019989438997 -3.2436437225e-19 -1.4615437853e-19
          -0.00020139529637 -2.2348185195e-20 -5.7104500355e-06 -0.0002042194292 3.2995258151e-19 -1.8922326108e-05
          -0.00020553681024 6.6099981305e-06 2.1443379897e-05 -0.00020271185687 6.8218231175e-06 6.8218231175e-06
          -0.00020139529637 5.7104500355e-06 -3.0666272519e-19 -0.00020271185687 6.8218231175e-06 -6.8218231175e-06
          -0.00020553681024 6.6099981305e-06 -2.1443379897e-05 -0.00020900986275 1.9652426991e-05 1.9652426991e-05
          -0.00020553681024 2.1443379897e-05 6.6099981305e-06 -0.0002042194292 1.8922326108e-05 -5.1353665437e-19
          -0.00020553681024 2.1443379897e-05 -6.6099981305e-06 -0.00020900986275 1.9652426991e-05 -1.9652426991e-05
          -0.00023467674547 -2.1020291739e-05 2.1020291739e-05 -0.00023102464732 -2.3949106513e-05 7.9494555708e-06
          -0.00023027827138 -2.0420711042e-05 2.9540399638e-19 -0.00023102464732 -2.3949106513e-05 -7.9494555708e-06
          -0.00023467674547 -2.1020291739e-05 -2.1020291739e-05 -0.00023102464732 -7.9494555708e-06 2.3949106513e-05
          -0.00022811641681 -8.7197814277e-06 8.7197814277e-06 -0.00022740393043 -7.5724368893e-06 3.6460319544e-19