<?xml version="1.0"?>
<VTKFile type="UnstructuredGrid" version="0.1" byte_order="LittleEndian" compressor="vtkZLibDataCompressor">
  <UnstructuredGrid>
    <Piece NumberOfPoints="525" NumberOfCells="525">
      <PointData>
        <DataArray type="Float64" Name="Damage" format="ascii" RangeMin="0" RangeMax="0">
          0 0 0 0 0 0
          0 0 0 0 0 0
          0 0 0 0 0 0
          0 0 0 0 0 0
          0 0 0 0 0 0
          0 0 0 0 0 0
          0 0 0 0 0 0
          0 0 0 0 0 0
          0 0 0 0 0 0
          0 0 0 0 0 0
          0 0 0 0 0 0
          0 0 0 0 0 0
          0 0 0 0 0 0
          0 0 0 0 0 0
          0 0 0 0 0 0
          0 0 0 0 0 0
          0 0 0 0 0 0
          0 0 0 0 0 0
          0 0 0 0 0 0
          0 0 0 0 0 0
          0 0 0 0 0 0
          0 0 0 0 0 0
          0 0 0 0 0 0
          0 0 0 0 0 0
          0 0 0 0 0 0
          0 0 0 0 0 0
          0 0 0 0 0 0
          0 0 0 0 0 0
          0 0 0 0 0 0
          0 0 0 0 0 0
          0 0 0 0 0 0
          0 0 0 0 0 0
          0 0 0 0 0 0
          0 0 0 0 0 0
          0 0 0 0 0 0
          0 0 0 0 0 0
          0 0 0 0 0 0
          0 0 0 0 0 0
          0 0 0 0 0 0
          0 0 0 0 0 0
          0 0 0 0 0 0
          0 0 0 0 0 0
          0 0 0 0 0 0
          0 0 0 0 0 0
          0 0 0 0 0 0
          0 0 0 0 0 0
          0 0 0 0 0 0
          0 0 0 0 0 0
          0 0 0 0 0 0
          0 0 0 0 0 0
          0 0 0 0 0 0
          0 0 0 0 0 0
          0 0 0 0 0 0
          0 0 0 0 0 0
          0 0 0 0 0 0
          0 0 0 0 0 0
          0 0 0 0 0 0
          0 0 0 0 0 0
          0 0 0 0 0 0
          0 0 0 0 0 0
          0 0 0 0 0 0
          0 0 0 0 0 0
          0 0 0 0 0 0
          0 0 0 0 0 0
          0 0 0 0 0 0
          0 0 0 0 0 0
          0 0 0 0 0 0
          0 0 0 0 0 0
          0 0 0 0 0 0
          0 0 0 0 0 0
          0 0 0 0 0 0
          0 0 0 0 0 0
          0 0 0 0 0 0
          0 0 0 0 0 0
          0 0 0 0 0 0
          0 0 0 0 0 0
          0 0 0 0 0 0
          0 0 0 0 0 0
          0 0 0 0 0 0
          0 0 0 0 0 0
          0 0 0 0 0 0
          0 0 0 0 0 0
          0 0 0 0 0 0
          0 0 0 0 0 0
          0 0 0 0 0 0
          0 0 0 0 0 0
          0 0 0 0 0 0
          0 0 0
        </DataArray>
        <DataArray type="Float64" Name="Dilatation" format="ascii" RangeMin="-0.0037533924895" RangeMax="0.013612091054">
          0.00063325329971 -0.0017812174192 0.00130068331 -0.0017812174192 0.00063325329971 -0.0017812174192
          -0.0028581712538 -0.0012420143928 -0.0028581712538 -0.0017812174192 0.00130068331 -0.0012420143928
          0.0001752254006 -0.0012420143928 0.00130068331 -0.0017812174192 -0.0028581712538 -0.0012420143928
          -0.0028581712538 -0.0017812174192 0.00063325329971 -0.0017812174192 0.00130068331 -0.0017812174192
          0.00063325329971 0.00039177507903 -0.00020697108087 0.00046170076333 -0.00020697108087 0.00039177507903
          -0.00020697108087 -0.00069419267498 -0.00045564996773 -0.00069419267498 -0.00020697108087 0.00046170076333
          -0.00045564996773 -0.0002310641628 -0.00045564996773 0.00046170076333 -0.00020697108087 -0.00069419267498
          -0.00045564996773 -0.00069419267498 -0.00020697108087 0.00039177507903 -0.00020697108087 0.00046170076333
          -0.00020697108087 0.00039177507903 -0.0025836022063 -0.00052505943378 -0.0006734942734 -0.00052505943378
          -0.0025836022063 -0.00052505943378 5.0938559845e-05 -5.1904400488e-05 5.0938559845e-05 -0.00052505943378
          -0.0006734942734 -5.1904400488e-05 -0.00081415468208 -5.1904400488e-05 -0.0006734942734 -0.00052505943378
          5.0938559845e-05 -5.1904400488e-05 5.0938559845e-05 -0.00052505943378 -0.0025836022063 -0.00052505943378
          -0.0006734942734 -0.00052505943378 -0.0025836022063 -0.0037533924895 -0.00070063382881 -0.0013283850881
          -0.00070063382881 -0.0037533924895 -0.00070063382881 -0.00044760442906 -0.00088726042241 -0.00044760442906
          -0.00070063382881 -0.0013283850881 -0.00088726042241 -0.0016012155223 -0.00088726042241 -0.0013283850881
          -0.00070063382881 -0.00044760442906 -0.00088726042241 -0.00044760442906 -0.00070063382881 -0.0037533924895
          -0.00070063382881 -0.0013283850881 -0.00070063382881 -0.0037533924895 -0.0036625611759 -0.001332521489
          -0.0018837903635 -0.001332521489 -0.0036625611759 -0.001332521489 -0.0014353035907 -0.0016544876581
          -0.0014353035907 -0.001332521489 -0.0018837903635 -0.0016544876581 -0.0019072076258 -0.0016544876581
          -0.0018837903635 -0.001332521489 -0.0014353035907 -0.0016544876581 -0.0014353035907 -0.001332521489
          -0.0036625611759 -0.001332521489 -0.0018837903635 -0.001332521489 -0.0036625611759 0.0010276709769
          0.0014106297953 0.00071772830294 0.0014106297953 0.0010276709769 0.0014106297953 0.00065009231194
          0.00030448810668 0.00065009231194 0.0014106297953 0.00071772830294 0.00030448810668 7.8187507509e-05
          0.00030448810668 0.00071772830294 0.0014106297953 0.00065009231194 0.00030448810668 0.00065009231194
          0.0014106297953 0.0010276709769 0.0014106297953 0.00071772830294 0.0014106297953 0.0010276709769
          0.0034710022167 0.0029121463015 0.0025935541998 0.0029121463015 0.0034710022167 0.0029121463015
          0.0024572164816 0.002219792338 0.0024572164816 0.0029121463015 0.0025935541998 0.002219792338
          0.0021592058634 0.002219792338 0.0025935541998 0.0029121463015 0.0024572164816 0.002219792338
          0.0024572164816 0.0029121463015 0.0034710022167 0.0029121463015 0.0025935541998 0.0029121463015
          0.0034710022167 0.0044059494484 0.0036061674584 0.0033169599035 0.0036061674584 0.0044059494484
          0.0036061674584 0.0038277822647 0.0032611777564 0.0038277822647 0.0036061674584 0.0033169599035
          0.0032611777564 0.0028021741048 0.0032611777564 0.0033169599035 0.0036061674584 0.0038277822647
          0.0032611777564 0.0038277822647 0.0036061674584 0.0044059494484 0.0036061674584 0.0033169599035
          0.0036061674584 0.0044059494484 0.0041725054577 0.0041023298609 0.0037278740273 0.0041023298609
          0.0041725054577 0.0041023298609 0.0053441413818 0.004302354263 0.0053441413818 0.0041023298609
          0.0037278740273 0.004302354263 0.0031721614141 0.004302354263 0.0037278740273 0.0041023298609
          0.0053441413818 0.004302354263 0.0053441413818 0.0041023298609 0.0041725054577 0.0041023298609
          0.0037278740273 0.0041023298609 0.0041725054577 0.0029401977613 0.0037842689498 0.003324618453
          0.0037842689498 0.0029401977613 0.0037842689498 0.0060526684726 0.0046793187394 0.0060526684726
          0.0037842689498 0.003324618453 0.0046793187394 0.003005611118 0.0046793187394 0.003324618453
          0.0037842689498 0.0060526684726 0.0046793187394 0.0060526684726 0.0037842689498 0.0029401977613
          0.0037842689498 0.003324618453 0.0037842689498 0.0029401977613 0.0027589909242 0.0041185482206
          0.0034783791504 0.0041185482206 0.0027589909242 0.0041185482206 0.006796383269 0.0051766592206
          0.006796383269 0.0041185482206 0.0034783791504 0.0051766592206 0.0031359256076 0.0051766592206
          0.0034783791504 0.0041185482206 0.006796383269 0.0051766592206 0.006796383269 0.0041185482206
          0.0027589909242 0.0041185482206 0.0034783791504 0.0041185482206 0.0027589909242 0.003513814384
          0.0049463055939 0.0041276878304 0.0049463055939 0.003513814384 0.0049463055939 0.0074852305988
          0.0057664454786 0.0074852305988 0.0049463055939 0.0041276878304 0.0057664454786 0.0036140068953
          0.0057664454786 0.0041276878304 0.0049463055939 0.0074852305988 0.0057664454786 0.0074852305988
          0.0049463055939 0.003513814384 0.0049463055939 0.0041276878304 0.0049463055939 0.003513814384
          0.0044543157814 0.0056256959935 0.0047050162809 0.0056256959935 0.0044543157814 0.0056256959935
          0.0076585719514 0.0060071774454 0.0076585719514 0.0056256959935 0.0047050162809 0.0060071774454
          0.0039880300074 0.0060071774454 0.0047050162809 0.0056256959935 0.0076585719514 0.0060071774454
          0.0076585719514 0.0056256959935 0.0044543157814 0.0056256959935 0.0047050162809 0.0056256959935
          0.0044543157814 0.0048817760128 0.0056607343491 0.0047541783448 0.0056607343491 0.0048817760128
          0.0056607343491 0.0070667716735 0.0056276668869 0.0070667716735 0.0056607343491 0.0047541783448
          0.0056276668869 0.0039312069571 0.0056276668869 0.0047541783448 0.0056607343491 0.0070667716735
          0.0056276668869 0.0070667716735 0.0056607343491 0.0048817760128 0.0056607343491 0.0047541783448
          0.0056607343491 0.0048817760128 0.0044184940555 0.0048191611137 0.0040408710853 0.0048191611137
          0.0044184940555 0.0048191611137 0.0056540845445 0.0045293533193 0.0056540845445 0.0048191611137
          0.0040408710853 0.0045293533193 0.0032458357613 0.0045293533193 0.0040408710853 0.0048191611137
          0.0056540845445 0.0045293533193 0.0056540845445 0.0048191611137 0.0044184940555 0.0048191611137
          0.0040408710853 0.0048191611137 0.0044184940555 0.0033554741849 0.003567136256 0.002994878204
          0.003567136256 0.0033554741849 0.003567136256 0.0040217964189 0.0032192491541 0.0040217964189
          0.003567136256 0.002994878204 0.0032192491541 0.0023341400026 0.0032192491541 0.002994878204
          0.003567136256 0.0040217964189 0.0032192491541 0.0040217964189 0.003567136256 0.0033554741849
          0.003567136256 0.002994878204 0.003567136256 0.0033554741849 0.0024537477645 0.0024539876301
          0.0020656794127 0.0024539876301 0.0024537477645 0.0024539876301 0.0025127005234 0.0019897414039
          0.0025127005234 0.0024539876301 0.0020656794127 0.0019897414039 0.0014205583907 0.0019897414039
          0.0020656794127 0.0024539876301 0.0025127005234 0.0019897414039 0.0025127005234 0.0024539876301
          0.0024537477645 0.0024539876301 0.0020656794127 0.0024539876301 0.0024537477645 0.0020284749266
          0.0019970080838 0.0018499586894 0.0019970080838 0.0020284749266 0.0019970080838 0.0019887061274
          0.0017899216758 0.0019887061274 0.0019970080838 0.0018499586894 0.0017899216758 0.0015443550715
          0.0017899216758 0.0018499586894 0.0019970080838 0.0019887061274 0.0017899216758 0.0019887061274
          0.0019970080838 0.0020284749266 0.0019970080838 0.0018499586894 0.0019970080838 0.0020284749266
          0.013612091054 0.010222286392 0.008591953992 0.010222286392 0.013612091054 0.010222286392
          0.0063786606713 0.006941360084 0.0063786606713 0.010222286392 0.008591953992 0.006941360084
          0.0099833253972 0.006941360084 0.008591953992 0.010222286392 0.0063786606713 0.006941360084
          0.0063786606713 0.010222286392 0.013612091054 0.010222286392 0.008591953992 0.010222286392
          0.013612091054 0.0021194616978 0.0018575366146 0.005203104442 0.0018575366146 0.0021194616978
          0.0018575366146 -0.002023634293 -0.00086541687911 -0.002023634293 0.0018575366146 0.005203104442
          -0.00086541687911 -0.0012285793414 -0.00086541687911 0.005203104442 0.0018575366146 -0.002023634293
          -0.00086541687911 -0.002023634293 0.0018575366146 0.0021194616978 0.0018575366146 0.005203104442
          0.0018575366146 0.0021194616978 -0.0017433553868 -0.0021351326224 0.0015484350377 -0.0021351326224
          -0.0017433553868 -0.0021351326224 -0.0015256176033 -0.00029702919569 -0.0015256176033 -0.0021351326224
          0.0015484350377 -0.00029702919569 0.0013635343619 -0.00029702919569 0.0015484350377 -0.0021351326224
          -0.0015256176033 -0.00029702919569 -0.0015256176033 -0.0021351326224 -0.0017433553868 -0.0021351326224
          0.0015484350377 -0.0021351326224 -0.0017433553868
        </DataArray>
        <DataArray type="Float64" Name="Displacement" NumberOfComponents="3" format="ascii" RangeMin="9.354340667e-06" RangeMax="0.00020893003255">
          -0.00016870381874 6.8805715722e-07 -6.8805715722e-07 -0.00016424435049 5.3798182259e-06 -6.5017407287e-06
          -0.00016482859067 -3.2427910003e-06 -1.1890008096e-19 -0.00016424435049 5.3798182259e-06 6.5017407287e-06
          -0.00016870381874 6.8805715722e-07 6.8805715722e-07 -0.00016424435049 6.5017407287e-06 -5.3798182259e-06
          -0.00017067996304 9.6737870181e-06 -9.6737870181e-06 -0.00017416784535 9.729796898e-06 -2.8994237152e-19
          -0.00017067996304 9.6737870181e-06 9.6737870181e-06 -0.00016424435049 6.5017407287e-06 5.3798182259e-06
          -0.00016482859067 -1.4858688043e-20 3.2427910003e-06 -0.00017416784535 3.4105915127e-19 -9.729796898e-06
          -0.00017603244452 -1.7299436431e-19 -2.2659052864e-19 -0.00017416784535 -6.5606579143e-20 9.729796898e-06
          -0.00016482859067 -2.8227474705e-19 -3.2427910003e-06 -0.00016424435049 -6.5017407287e-06 -5.3798182259e-06
          -0.00017067996304 -9.6737870181e-06 -9.6737870181e-06 -0.00017416784535 -9.729796898e-06 -1.9156579332e-19
          -0.00017067996304 -9.6737870181e-06 9.6737870181e-06 -0.00016424435049 -6.5017407287e-06 5.3798182259e-06
          -0.00016870381874 -6.8805715722e-07 -6.8805715722e-07 -0.00016424435049 -5.3798182259e-06 -6.5017407287e-06
          -0.00016482859067 3.2427910003e-06 -3.2976787831e-19 -0.00016424435049 -5.3798182259e-06 6.5017407287e-06
          -0.00016870381874 -6.8805715722e-07 6.8805715722e-07 -0.00018154760451 -1.3293537888e-06 1.3293537888e-06
          -0.00016811943727 7.8450825196e-07 1.6023218273e-06 -0.00016365528983 -3.3391574163e-06 -1.4917469734e-19
          -0.00016811943727 7.8450825196e-07 -1.6023218273e-06 -0.00018154760451 -1.3293537888e-06 -1.3293537888e-06
          -0.00016811943727 -1.6023218273e-06 -7.8450825196e-07 -0.0001583027766 1.622089578e-06 -1.622089578e-06
          -0.00015594437439 1.4781517411e-06 -1.3717089331e-19 -0.0001583027766 1.622089578e-06 1.622089578e-06
          -0.00016811943727 -1.6023218273e-06 7.8450825196e-07 -0.00016365528983 5.419274644e-19 3.3391574163e-06
          -0.00015594437439 4.5254914994e-20 -1.4781517411e-06 -0.00015297241471 -9.0294833409e-20 -2.1293941754e-19
          -0.00015594437439 -2.0169770196e-20 1.4781517411e-06 -0.00016365528983 1.4896551825e-19 -3.3391574163e-06
          -0.00016811943727 1.6023218273e-06 -7.8450825196e-07 -0.0001583027766 -1.622089578e-06 -1.622089578e-06
          -0.00015594437439 -1.4781517411e-06 -1.0595060095e-19 -0.0001583027766 -1.622089578e-06 1.622089578e-06
          -0.00016811943727 1.6023218273e-06 7.8450825196e-07 -0.00018154760451 1.3293537888e-06 1.3293537888e-06
          -0.00016811943727 -7.8450825196e-07 1.6023218273e-06 -0.00016365528983 3.3391574163e-06 -1.8464609891e-19
          -0.00016811943727 -7.8450825196e-07 -1.6023218273e-06 -0.00018154760451 1.3293537888e-06 -1.3293537888e-06
          -0.00018995747356 -7.031167498e-07 7.031167498e-07 -0.00016867212914 -3.7082290328e-06 6.3227633629e-06
          -0.00016302222473 -5.2559864948e-06 -1.9080209476e-19 -0.00016867212914 -3.7082290328e-06 -6.3227633629e-06
          -0.00018995747356 -7.031167498e-07 -7.031167498e-07 -0.00016867212914 -6.3227633629e-06 3.7082290328e-06
          -0.00014487646122 -5.5393637018e-06 5.5393637018e-06 -0.00014005466944 -8.2665331762e-06 -4.4405791447e-19
          -0.00014487646122 -5.5393637018e-06 -5.5393637018e-06 -0.00016867212914 -6.3227633629e-06 -3.7082290328e-06
          -0.00016302222473 -3.2186165798e-19 5.2559864948e-06 -0.00014005466944 9.6716487562e-20 8.2665331762e-06
          -0.00013318040817 1.2459198619e-19 -4.3970193959e-19 -0.00014005466944 -7.1532074077e-20 -8.2665331762e-06
          -0.00016302222473 1.4586922988e-19 -5.2559864948e-06 -0.00016867212914 6.3227633629e-06 3.7082290328e-06
          -0.00014487646122 5.5393637018e-06 5.5393637018e-06 -0.00014005466944 8.2665331762e-06 1.0815592409e-19
          -0.00014487646122 5.5393637018e-06 -5.5393637018e-06 -0.00016867212914 6.3227633629e-06 -3.7082290328e-06
          -0.00018995747356 7.031167498e-07 7.031167498e-07 -0.00016867212914 3.7082290328e-06 6.3227633629e-06
          -0.00016302222473 5.2559864948e-06 -1.1643484963e-19 -0.00016867212914 3.7082290328e-06 -6.3227633629e-06
          -0.00018995747356 7.031167498e-07 -7.031167498e-07 -0.00020000585341 -3.0475724035e-06 3.0475724035e-06
          -0.00018099563424 -1.0372903354e-05 7.4472836066e-06 -0.00017362899493 -8.7139438025e-06 6.5468449804e-20
          -0.00018099563424 -1.0372903354e-05 -7.4472836066e-06 -0.00020000585341 -3.0475724035e-06 -3.0475724035e-06
          -0.00018099563424 -7.4472836066e-06 1.0372903354e-05 -0.00016369322285 -9.376873567e-06 9.376873567e-06
          -0.00015717362124 -1.0206977207e-05 -8.0435865425e-20 -0.00016369322285 -9.376873567e-06 -9.376873567e-06
          -0.00018099563424 -7.4472836066e-06 -1.0372903354e-05 -0.00017362899493 -7.0554687478e-20 8.7139438025e-06
          -0.00015717362124 4.415157167e-19 1.0206977207e-05 -0.00015113090146 -4.3144102925e-20 -4.223919411e-19
          -0.00015717362124 1.3287007121e-19 -1.0206977207e-05 -0.00017362899493 -3.078111489e-20 -8.7139438025e-06
          -0.00018099563424 7.4472836066e-06 1.0372903354e-05 -0.00016369322285 9.376873567e-06 9.376873567e-06
          -0.00015717362124 1.0206977207e-05 -1.1650427525e-19 -0.00016369322285 9.376873567e-06 -9.376873567e-06
          -0.00018099563424 7.4472836066e-06 -1.0372903354e-05 -0.00020000585341 3.0475724035e-06 3.0475724035e-06
          -0.00018099563424 1.0372903354e-05 7.4472836066e-06 -0.00017362899493 8.7139438025e-06 1.7682774421e-19
          -0.00018099563424 1.0372903354e-05 -7.4472836066e-06 -0.00020000585341 3.0475724035e-06 -3.0475724035e-06
          -0.00020254514685 -2.8615536056e-06 2.8615536056e-06 -0.0001962614017 -1.0383420207e-05 5.2197710105e-06
          -0.00019170796611 -7.1744467891e-06 -1.7595190044e-19 -0.0001962614017 -1.0383420207e-05 -5.2197710105e-06
          -0.00020254514685 -2.8615536056e-06 -2.8615536056e-06 -0.0001962614017 -5.2197710105e-06 1.0383420207e-05
          -0.00018615199187 -8.6796709298e-06 8.6796709298e-06 -0.00018181547806 -8.5064517679e-06 -1.0735101705e-19
          -0.00018615199187 -8.6796709298e-06 -8.6796709298e-06 -0.0001962614017 -5.2197710105e-06 -1.0383420207e-05
          -0.00019170796611 -1.2556346771e-19 7.1744467891e-06 -0.00018181547806 4.8873639466e-19 8.5064517679e-06
          -0.00017974777252 -1.3690202869e-19 1.037825848e-19 -0.00018181547806 -1.0974899477e-19 -8.5064517679e-06
          -0.00019170796611 4.6835335739e-20 -7.1744467891e-06 -0.0001962614017 5.2197710105e-06 1.0383420207e-05
          -0.00018615199187 8.6796709298e-06 8.6796709298e-06 -0.00018181547806 8.5064517679e-06 3.0644661851e-19
          -0.00018615199187 8.6796709298e-06 -8.6796709298e-06 -0.0001962614017 5.2197710105e-06 -1.0383420207e-05
          -0.00020254514685 2.8615536056e-06 2.8615536056e-06 -0.0001962614017 1.0383420207e-05 5.2197710105e-06
          -0.00019170796611 7.1744467891e-06 1.34611391e-19 -0.0001962614017 1.0383420207e-05 -5.2197710105e-06
          -0.00020254514685 2.8615536056e-06 -2.8615536056e-06 -0.0001893860095 -4.6985360643e-06 4.6985360643e-06
          -0.00019356448898 -9.1988761403e-06 3.2470673892e-06 -0.00019316881605 -5.929374661e-06 8.1446427885e-20
          -0.00019356448898 -9.1988761403e-06 -3.2470673892e-06 -0.0001893860095 -4.6985360643e-06 -4.6985360643e-06
          -0.00019356448898 -3.2470673892e-06 9.1988761403e-06 -0.00019312718302 -6.4047851157e-06 6.4047851157e-06
          -0.00019254820751 -5.6440779562e-06 -4.0710729618e-20 -0.00019312718302 -6.4047851157e-06 -6.4047851157e-06
          -0.00019356448898 -3.2470673892e-06 -9.1988761403e-06 -0.00019316881605 -3.0456252684e-19 5.929374661e-06
          -0.00019254820751 1.7926123644e-20 5.6440779562e-06 -0.00019311004282 -1.488083725e-19 -1.1545211651e-20
          -0.00019254820751 -3.3423521414e-19 -5.6440779562e-06 -0.00019316881605 7.3105115874e-20 -5.929374661e-06
          -0.00019356448898 3.2470673892e-06 9.1988761403e-06 -0.00019312718302 6.4047851157e-06 6.4047851157e-06
          -0.00019254820751 5.6440779562e-06 1.0056048786e-19 -0.00019312718302 6.4047851157e-06 -6.4047851157e-06
          -0.00019356448898 3.2470673892e-06 -9.1988761403e-06 -0.0001893860095 4.6985360643e-06 4.6985360643e-06
          -0.00019356448898 9.1988761403e-06 3.2470673892e-06 -0.00019316881605 5.929374661e-06 7.1834819075e-20
          -0.00019356448898 9.1988761403e-06 -3.2470673892e-06 -0.0001893860095 4.6985360643e-06 -4.6985360643e-06
          -0.00018102231178 -3.2738280549e-07 3.2738280549e-07 -0.00019257156056 -1.2929838277e-06 -1.2077838676e-06
          -0.0001957303525 -1.659832337e-07 -3.8977989678e-19 -0.00019257156056 -1.2929838277e-06 1.2077838676e-06
          -0.00018102231178 -3.2738280549e-07 -3.2738280549e-07 -0.00019257156056 1.2077838676e-06 1.2929838277e-06
          -0.00020150728928 -1.1074638496e-07 1.1074638496e-07 -0.00020462950621 5.1363617268e-07 3.4648555056e-20
          -0.00020150728928 -1.1074638496e-07 -1.1074638496e-07 -0.00019257156056 1.2077838676e-06 -1.2929838277e-06
          -0.0001957303525 -1.0216682907e-19 1.659832337e-07 -0.00020462950621 2.0863883904e-19 -5.1363617268e-07
          -0.00020893003255 5.8300873444e-20 -8.0852503855e-20 -0.00020462950621 -2.090855046e-19 5.1363617268e-07
          -0.0001957303525 1.0606330393e-19 -1.659832337e-07 -0.00019257156056 -1.2077838676e-06 1.2929838277e-06
          -0.00020150728928 1.1074638496e-07 1.1074638496e-07 -0.00020462950621 -5.1363617268e-07 3.5027382741e-20
          -0.00020150728928 1.1074638496e-07 -1.1074638496e-07 -0.00019257156056 -1.2077838676e-06 -1.2929838277e-06
          -0.00018102231178 3.2738280549e-07 3.2738280549e-07 -0.00019257156056 1.2929838277e-06 -1.2077838676e-06
          -0.0001957303525 1.659832337e-07 -1.9545442863e-20 -0.00019257156056 1.2929838277e-06 1.2077838676e-06
          -0.00018102231178 3.2738280549e-07 -3.2738280549e-07 -0.00016852064313 5.4091072851e-06 -5.4091072851e-06
          -0.00018043484228 7.443673316e-06 -3.7649709971e-06 -0.00018539335545 6.3308613965e-06 -4.2944222978e-19
          -0.00018043484228 7.443673316e-06 3.7649709971e-06 -0.00016852064313 5.4091072851e-06 5.4091072851e-06
          -0.00018043484228 3.7649709971e-06 -7.443673316e-06 -0.00019073936677 4.0715841048e-06 -4.0715841048e-06
          -0.00019540702109 4.1724444246e-06 -3.2707217685e-20 -0.00019073936677 4.0715841048e-06 4.0715841048e-06
          -0.00018043484228 3.7649709971e-06 7.443673316e-06 -0.00018539335545 -1.1501340549e-19 -6.3308613965e-06
          -0.00019540702109 1.9312972696e-19 -4.1724444246e-06 -0.00020057694118 7.5572382879e-20 1.6809932408e-19
          -0.00019540702109 -5.5269559625e-20 4.1724444246e-06 -0.00018539335545 4.3124152844e-19 6.3308613965e-06
          -0.00018043484228 -3.7649709971e-06 -7.443673316e-06 -0.00019073936677 -4.0715841048e-06 -4.0715841048e-06
          -0.00019540702109 -4.1724444246e-06 1.8934382247e-19 -0.00019073936677 -4.0715841048e-06 4.0715841048e-06
          -0.00018043484228 -3.7649709971e-06 7.443673316e-06 -0.00016852064313 -5.4091072851e-06 -5.4091072851e-06
          -0.00018043484228 -7.443673316e-06 -3.7649709971e-06 -0.00018539335545 -6.3308613965e-06 -1.8677932724e-20
          -0.00018043484228 -7.443673316e-06 3.7649709971e-06 -0.00016852064313 -5.4091072851e-06 5.4091072851e-06
          -0.00015708718902 1.275201131e-05 -1.275201131e-05 -0.00016514349496 1.6083679678e-05 -5.8131986814e-06
          -0.00016951030477 1.3009970797e-05 -3.5046481684e-19 -0.00016514349496 1.6083679678e-05 5.8131986814e-06
          -0.00015708718902 1.275201131e-05 1.275201131e-05 -0.00016514349496 5.8131986814e-06 -1.6083679678e-05
          -0.00017254276895 7.1065705367e-06 -7.1065705367e-06 -0.00017661279445 6.3996340526e-06 -2.7837826262e-19
          -0.00017254276895 7.1065705367e-06 7.1065705367e-06 -0.00016514349496 5.8131986814e-06 1.6083679678e-05
          -0.00016951030477 9.6585428857e-21 -1.3009970797e-05 -0.00017661279445 8.4838958109e-20 -6.3996340526e-06
          -0.00018071605915 1.1325393888e-19 -4.2674643508e-20 -0.00017661279445 -8.9441523132e-20 6.3996340526e-06
          -0.00016951030477 -7.8741159871e-20 1.3009970797e-05 -0.00016514349496 -5.8131986814e-06 -1.6083679678e-05
          -0.00017254276895 -7.1065705367e-06 -7.1065705367e-06 -0.00017661279445 -6.3996340526e-06 -1.4301566342e-19
          -0.00017254276895 -7.1065705367e-06 7.1065705367e-06 -0.00016514349496 -5.8131986814e-06 1.6083679678e-05
          -0.00015708718902 -1.275201131e-05 -1.275201131e-05 -0.00016514349496 -1.6083679678e-05 -5.8131986814e-06
          -0.00016951030477 -1.3009970797e-05 -1.1868608488e-20 -0.00016514349496 -1.6083679678e-05 5.8131986814e-06
          -0.00015708718902 -1.275201131e-05 1.275201131e-05 -0.00014509393251 1.9415262158e-05 -1.9415262158e-05
          -0.00014817401483 2.3106241985e-05 -7.2499703731e-06 -0.00015057260247 1.893395587e-05 5.8878095235e-19
          -0.00014817401483 2.3106241985e-05 7.2499703731e-06 -0.00014509393251 1.9415262158e-05 1.9415262158e-05
          -0.00014817401483 7.2499703731e-06 -2.3106241985e-05 -0.00015098930146 8.9472934406e-06 -8.9472934406e-06
          -0.00015314527966 7.5623065577e-06 2.8257732857e-19 -0.00015098930146 8.9472934406e-06 8.9472934406e-06
          -0.00014817401483 7.2499703731e-06 2.3106241985e-05 -0.00015057260247 8.1135940773e-20 -1.893395587e-05
          -0.00015314527966 1.5132781072e-19 -7.5623065577e-06 -0.0001550968083 -2.7109297987e-20 1.8870241206e-19
          -0.00015314527966 3.7994004949e-19 7.5623065577e-06 -0.00015057260247 8.781807285e-20 1.893395587e-05
          -0.00014817401483 -7.2499703731e-06 -2.3106241985e-05 -0.00015098930146 -8.9472934406e-06 -8.9472934406e-06
          -0.00015314527966 -7.5623065577e-06 5.0343202422e-20 -0.00015098930146 -8.9472934406e-06 8.9472934406e-06
          -0.00014817401483 -7.2499703731e-06 2.3106241985e-05 -0.00014509393251 -1.9415262158e-05 -1.9415262158e-05
          -0.00014817401483 -2.3106241985e-05 -7.2499703731e-06 -0.00015057260247 -1.893395587e-05 8.7036544892e-20
          -0.00014817401483 -2.3106241985e-05 7.2499703731e-06 -0.00014509393251 -1.9415262158e-05 1.9415262158e-05
          -0.00012785594479 2.249076051e-05 -2.249076051e-05 -0.00012681978663 2.5811791592e-05 -7.6027750025e-06
          -0.00012701316089 2.1492402669e-05 4.9451446061e-21 -0.00012681978663 2.5811791592e-05 7.6027750025e-06
          -0.00012785594479 2.249076051e-05 2.249076051e-05 -0.00012681978663 7.6027750025e-06 -2.5811791592e-05
          -0.00012574023816 9.223740165e-06 -9.223740165e-06 -0.00012579720182 7.5048640101e-06 4.4381033127e-19
          -0.00012574023816 9.223740165e-06 9.223740165e-06 -0.00012681978663 7.6027750025e-06 2.5811791592e-05
          -0.00012701316089 -9.7955671604e-20 -2.1492402669e-05 -0.00012579720182 8.0448801318e-20 -7.5048640101e-06
          -0.00012562356591 -3.3288221519e-20 1.6572091339e-19 -0.00012579720182 -8.5696156078e-20 7.5048640101e-06
          -0.00012701316089 -4.9862839606e-20 2.1492402669e-05 -0.00012681978663 -7.6027750025e-06 -2.5811791592e-05
          -0.00012574023816 -9.223740165e-06 -9.223740165e-06 -0.00012579720182 -7.5048640101e-06 3.7728616603e-20
          -0.00012574023816 -9.223740165e-06 9.223740165e-06 -0.00012681978663 -7.6027750025e-06 2.5811791592e-05
          -0.00012785594479 -2.249076051e-05 -2.249076051e-05 -0.00012681978663 -2.5811791592e-05 -7.6027750025e-06
          -0.00012701316089 -2.1492402669e-05 -7.0481035428e-20 -0.00012681978663 -2.5811791592e-05 7.6027750025e-06
          -0.00012785594479 -2.249076051e-05 2.249076051e-05 -0.00010611400922 2.2019880087e-05 -2.2019880087e-05
          -0.00010289810267 2.4643607678e-05 -7.0846152316e-06 -0.0001014674806 2.0822245647e-05 -5.9709493055e-20
          -0.00010289810267 2.4643607678e-05 7.0846152316e-06 -0.00010611400922 2.2019880087e-05 2.2019880087e-05
          -0.00010289810267 7.0846152316e-06 -2.4643607678e-05 -9.9761457579e-05 8.4000207955e-06 -8.4000207955e-06
          -9.8311364595e-05 6.6885434284e-06 2.9262622881e-19 -9.9761457579e-05 8.4000207955e-06 8.4000207955e-06
          -0.00010289810267 7.0846152316e-06 2.4643607678e-05 -0.0001014674806 3.2646335047e-19 -2.0822245647e-05
          -9.8311364595e-05 -2.3837893474e-19 -6.6885434284e-06 -9.675174107e-05 -6.4669154745e-20 -7.6104253076e-20
          -9.8311364595e-05 -7.2292586479e-20 6.6885434284e-06 -0.0001014674806 3.6278428029e-19 2.0822245647e-05
          -0.00010289810267 -7.0846152316e-06 -2.4643607678e-05 -9.9761457579e-05 -8.4000207955e-06 -8.4000207955e-06
          -9.8311364595e-05 -6.6885434284e-06 5.8022151336e-20 -9.9761457579e-05 -8.4000207955e-06 8.4000207955e-06
          -0.00010289810267 -7.0846152316e-06 2.4643607678e-05 -0.00010611400922 -2.2019880087e-05 -2.2019880087e-05
          -0.00010289810267 -2.4643607678e-05 -7.0846152316e-06 -0.0001014674806 -2.0822245647e-05 -3.8957432038e-19
          -0.00010289810267 -2.4643607678e-05 7.0846152316e-06 -0.00010611400922 -2.2019880087e-05 2.2019880087e-05
          -8.2026744732e-05 1.8787064221e-05 -1.8787064221e-05 -7.8244929941e-05 2.0688947373e-05 -5.8912239751e-06
          -7.6054410275e-05 1.7698846033e-05 2.1409795376e-19 -7.8244929941e-05 2.0688947373e-05 5.8912239751e-06
          -8.2026744732e-05 1.8787064221e-05 1.8787064221e-05 -7.8244929941e-05 5.8912239751e-06 -2.0688947373e-05
          -7.4605500803e-05 6.8514936535e-06 -6.8514936535e-06 -7.2478565266e-05 5.3889371566e-06 9.4502815314e-20
          -7.4605500803e-05 6.8514936535e-06 6.8514936535e-06 -7.8244929941e-05 5.8912239751e-06 2.0688947373e-05
          -7.6054410275e-05 1.2229529162e-20 -1.7698846033e-05 -7.2478565266e-05 -4.0573426673e-20 -5.3889371566e-06