<?xml version="1.0"?>
<VTKFile type="UnstructuredGrid" version="0.1" byte_order="LittleEndian" compressor="vtkZLibDataCompressor">
  <UnstructuredGrid>
    <Piece NumberOfPoints="525" NumberOfCells="525">
      <PointData>
        <DataArray type="Float64" Name="Damage" format="ascii" RangeMin="0" RangeMax="0">
          0 0 0 0 0 0
          0 0 0 0 0 0
          0 0 0 0 0 0
          0 0 0 0 0 0
          0 0 0 0 0 0
          0 0 0 0 0 0
          0 0 0 0 0 0
          0 0 0 0 0 0
          0 0 0 0 0 0
          0 0 0 0 0 0
          0 0 0 0 0 0
          0 0 0 0 0 0
          0 0 0 0 0 0
          0 0 0 0 0 0
          0 0 0 0 0 0
          0 0 0 0 0 0
          0 0 0 0 0 0
          0 0 0 0 0 0
          0 0 0 0 0 0
          0 0 0 0 0 0
          0 0 0 0 0 0
          0 0 0 0 0 0
          0 0 0 0 0 0
          0 0 0 0 0 0
          0 0 0 0 0 0
          0 0 0 0 0 0
          0 0 0 0 0 0
          0 0 0 0 0 0
          0 0 0 0 0 0
          0 0 0 0 0 0
          0 0 0 0 0 0
          0 0 0 0 0 0
          0 0 0 0 0 0
          0 0 0 0 0 0
          0 0 0 0 0 0
          0 0 0 0 0 0
          0 0 0 0 0 0
          0 0 0 0 0 0
          0 0 0 0 0 0
          0 0 0 0 0 0
          0 0 0 0 0 0
          0 0 0 0 0 0
          0 0 0 0 0 0
          0 0 0 0 0 0
          0 0 0 0 0 0
          0 0 0 0 0 0
          0 0 0 0 0 0
          0 0 0 0 0 0
          0 0 0 0 0 0
          0 0 0 0 0 0
          0 0 0 0 0 0
          0 0 0 0 0 0
          0 0 0 0 0 0
          0 0 0 0 0 0
          0 0 0 0 0 0
          0 0 0 0 0 0
          0 0 0 0 0 0
          0 0 0 0 0 0
          0 0 0 0 0 0
          0 0 0 0 0 0
          0 0 0 0 0 0
          0 0 0 0 0 0
          0 0 0 0 0 0
          0 0 0 0 0 0
          0 0 0 0 0 0
          0 0 0 0 0 0
          0 0 0 0 0 0
          0 0 0 0 0 0
          0 0 0 0 0 0
          0 0 0 0 0 0
          0 0 0 0 0 0
          0 0 0 0 0 0
          0 0 0 0 0 0
          0 0 0 0 0 0
          0 0 0 0 0 0
          0 0 0 0 0 0
          0 0 0 0 0 0
          0 0 0 0 0 0
          0 0 0 0 0 0
          0 0 0 0 0 0
          0 0 0 0 0 0
          0 0 0 0 0 0
          0 0 0 0 0 0
          0 0 0 0 0 0
          0 0 0 0 0 0
          0 0 0 0 0 0
          0 0 0 0 0 0
          0 0 0
        </DataArray>
        <DataArray type="Float64" Name="Dilatation" format="ascii" RangeMin="-0.0079539626793" RangeMax="0.010098171527">
          -0.0010035833371 0.0011983158366 0.004161008305 0.0011983158366 -0.0010035833371 0.0011983158366
          0.0021321424546 0.0013397173323 0.0021321424546 0.0011983158366 0.004161008305 0.0013397173323
          0.0020798421466 0.0013397173323 0.004161008305 0.0011983158366 0.0021321424546 0.0013397173323
          0.0021321424546 0.0011983158366 -0.0010035833371 0.0011983158366 0.004161008305 0.0011983158366
          -0.0010035833371 0.0044678076668 0.0013950093653 0.0042492470542 0.0013950093653 0.0044678076668
          0.0013950093653 -0.00082577572735 0.00095218112879 -0.00082577572735 0.0013950093653 0.0042492470542
          0.00095218112879 0.0030360861304 0.00095218112879 0.0042492470542 0.0013950093653 -0.00082577572735
          0.00095218112879 -0.00082577572735 0.0013950093653 0.0044678076668 0.0013950093653 0.0042492470542
          0.0013950093653 0.0044678076668 0.010098171527 0.0035251235876 0.004771972068 0.0035251235876
          0.010098171527 0.0035251235876 -0.00207907022 0.00040914084657 -0.00207907022 0.0035251235876
          0.004771972068 0.00040914084657 0.0030950650706 0.00040914084657 0.004771972068 0.0035251235876
          -0.00207907022 0.00040914084657 -0.00207907022 0.0035251235876 0.010098171527 0.0035251235876
          0.004771972068 0.0035251235876 0.010098171527 0.0083528780592 0.0050859669973 0.0053539849433
          0.0050859669973 0.0083528780592 0.0050859669973 -0.00014842145626 0.0017847067861 -0.00014842145626
          0.0050859669973 0.0053539849433 0.0017847067861 0.0031192332058 0.0017847067861 0.0053539849433
          0.0050859669973 -0.00014842145626 0.0017847067861 -0.00014842145626 0.0050859669973 0.0083528780592
          0.0050859669973 0.0053539849433 0.0050859669973 0.0083528780592 0.0029171292977 0.0032237436184
          0.0024391644855 0.0032237436184 0.0029171292977 0.0032237436184 0.0014601947866 0.0020624747735
          0.0014601947866 0.0032237436184 0.0024391644855 0.0020624747735 0.0019270838371 0.0020624747735
          0.0024391644855 0.0032237436184 0.0014601947866 0.0020624747735 0.0014601947866 0.0032237436184
          0.0029171292977 0.0032237436184 0.0024391644855 0.0032237436184 0.0029171292977 -0.0015091039004
          0.0015046108333 0.0004388781705 0.0015046108333 -0.0015091039004 0.0015046108333 0.0029580564717
          0.0024130572912 0.0029580564717 0.0015046108333 0.0004388781705 0.0024130572912 0.001241977535
          0.0024130572912 0.0004388781705 0.0015046108333 0.0029580564717 0.0024130572912 0.0029580564717
          0.0015046108333 -0.0015091039004 0.0015046108333 0.0004388781705 0.0015046108333 -0.0015091039004
          -0.0051966068185 -0.0013739044183 -0.0016315265547 -0.0013739044183 -0.0051966068185 -0.0013739044183
          0.0020970337406 0.0011912247886 0.0020970337406 -0.0013739044183 -0.0016315265547 0.0011912247886
          -7.5718849873e-05 0.0011912247886 -0.0016315265547 -0.0013739044183 0.0020970337406 0.0011912247886
          0.0020970337406 -0.0013739044183 -0.0051966068185 -0.0013739044183 -0.0016315265547 -0.0013739044183
          -0.0051966068185 -0.0044985466419 -0.0019600223104 -0.0016379668604 -0.0019600223104 -0.0044985466419
          -0.0019600223104 0.00087136517608 0.00016540958408 0.00087136517608 -0.0019600223104 -0.0016379668604
          0.00016540958408 -0.00054512081229 0.00016540958408 -0.0016379668604 -0.0019600223104 0.00087136517608
          0.00016540958408 0.00087136517608 -0.0019600223104 -0.0044985466419 -0.0019600223104 -0.0016379668604
          -0.0019600223104 -0.0044985466419 -0.0038721620833 -0.0032907470638 -0.0022373969989 -0.0032907470638
          -0.0038721620833 -0.0032907470638 -0.00226616968 -0.0019896526518 -0.00226616968 -0.0032907470638
          -0.0022373969989 -0.0019896526518 -0.0015841727359 -0.0019896526518 -0.0022373969989 -0.0032907470638
          -0.00226616968 -0.0019896526518 -0.00226616968 -0.0032907470638 -0.0038721620833 -0.0032907470638
          -0.0022373969989 -0.0032907470638 -0.0038721620833 -0.0016367963796 -0.002962909076 -0.0019581060162
          -0.002962909076 -0.0016367963796 -0.002962909076 -0.0040885199303 -0.0032356203014 -0.0040885199303
          -0.002962909076 -0.0019581060162 -0.0032356203014 -0.0020307423277 -0.0032356203014 -0.0019581060162
          -0.002962909076 -0.0040885199303 -0.0032356203014 -0.0040885199303 -0.002962909076 -0.0016367963796
          -0.002962909076 -0.0019581060162 -0.002962909076 -0.0016367963796 -0.0016229760881 -0.0033603607323
          -0.0024811816388 -0.0033603607323 -0.0016229760881 -0.0033603607323 -0.0056433054166 -0.0043298915759
          -0.0056433054166 -0.0033603607323 -0.0024811816388 -0.0043298915759 -0.0026219342967 -0.0043298915759
          -0.0024811816388 -0.0033603607323 -0.0056433054166 -0.0043298915759 -0.0056433054166 -0.0033603607323
          -0.0016229760881 -0.0033603607323 -0.0024811816388 -0.0033603607323 -0.0016229760881 -0.003284730831
          -0.0047169764467 -0.0039592660751 -0.0047169764467 -0.003284730831 -0.0047169764467 -0.0073174122495
          -0.0057372993207 -0.0073174122495 -0.0047169764467 -0.0039592660751 -0.0057372993207 -0.003806752349
          -0.0057372993207 -0.0039592660751 -0.0047169764467 -0.0073174122495 -0.0057372993207 -0.0073174122495
          -0.0047169764467 -0.003284730831 -0.0047169764467 -0.0039592660751 -0.0047169764467 -0.003284730831
          -0.0044827780388 -0.0054569924033 -0.0047990071489 -0.0054569924033 -0.0044827780388 -0.0054569924033
          -0.0079539626793 -0.0063092903403 -0.0079539626793 -0.0054569924033 -0.0047990071489 -0.0063092903403
          -0.0043296000189 -0.0063092903403 -0.0047990071489 -0.0054569924033 -0.0079539626793 -0.0063092903403
          -0.0079539626793 -0.0054569924033 -0.0044827780388 -0.0054569924033 -0.0047990071489 -0.0054569924033
          -0.0044827780388 -0.0047875973148 -0.0055028168603 -0.00488397226 -0.0055028168603 -0.0047875973148
          -0.0055028168603 -0.0077206662338 -0.0061311525991 -0.0077206662338 -0.0055028168603 -0.00488397226
          -0.0061311525991 -0.0042431530541 -0.0061311525991 -0.00488397226 -0.0055028168603 -0.0077206662338
          -0.0061311525991 -0.0077206662338 -0.0055028168603 -0.0047875973148 -0.0055028168603 -0.00488397226
          -0.0055028168603 -0.0047875973148 -0.0039228958969 -0.0045310635067 -0.0039873924638 -0.0045310635067
          -0.0039228958969 -0.0045310635067 -0.0063571080196 -0.0049936647772 -0.0063571080196 -0.0045310635067
          -0.0039873924638 -0.0049936647772 -0.0033531461947 -0.0049936647772 -0.0039873924638 -0.0045310635067
          -0.0063571080196 -0.0049936647772 -0.0063571080196 -0.0045310635067 -0.0039228958969 -0.0045310635067
          -0.0039873924638 -0.0045310635067 -0.0039228958969 -0.0024477502857 -0.0031796249164 -0.0028025882989
          -0.0031796249164 -0.0024477502857 -0.0031796249164 -0.0046671614327 -0.0035671575907 -0.0046671614327
          -0.0031796249164 -0.0028025882989 -0.0035671575907 -0.002251347207 -0.0035671575907 -0.0028025882989
          -0.0031796249164 -0.0046671614327 -0.0035671575907 -0.0046671614327 -0.0031796249164 -0.0024477502857
          -0.0031796249164 -0.0028025882989 -0.0031796249164 -0.0024477502857 -0.0020631402076 -0.0024899830027
          -0.0021493957512 -0.0024899830027 -0.0020631402076 -0.0024899830027 -0.0028931093268 -0.0020996319041
          -0.0028931093268 -0.0024899830027 -0.0021493957512 -0.0020996319041 -0.0011341564016 -0.0020996319041
          -0.0021493957512 -0.0024899830027 -0.0028931093268 -0.0020996319041 -0.0028931093268 -0.0024899830027
          -0.0020631402076 -0.0024899830027 -0.0021493957512 -0.0024899830027 -0.0020631402076 -0.0017086397743
          -0.002184572028 -0.0023509195639 -0.002184572028 -0.0017086397743 -0.002184572028 -0.0027598959161
          -0.002956908003 -0.0027598959161 -0.002184572028 -0.0023509195639 -0.002956908003 -0.0030749942867
          -0.002956908003 -0.0023509195639 -0.002184572028 -0.0027598959161 -0.002956908003 -0.0027598959161
          -0.002184572028 -0.0017086397743 -0.002184572028 -0.0023509195639 -0.002184572028 -0.0017086397743
          -0.0024528995578 -0.0012677751065 0.00029516867895 -0.0012677751065 -0.0024528995578 -0.0012677751065
          -0.0022904984417 -0.00034977558409 -0.0022904984417 -0.0012677751065 0.00029516867895 -0.00034977558409
          0.0050691030729 -0.00034977558409 0.00029516867895 -0.0012677751065 -0.0022904984417 -0.00034977558409
          -0.0022904984417 -0.0012677751065 -0.0024528995578 -0.0012677751065 0.00029516867895 -0.0012677751065
          -0.0024528995578 -0.0011072343296 0.0012589678028 0.0019869069323 0.0012589678028 -0.0011072343296
          0.0012589678028 0.0046173167417 0.0031845880473 0.0046173167417 0.0012589678028 0.0019869069323
          0.0031845880473 0.0035408456867 0.0031845880473 0.0019869069323 0.0012589678028 0.0046173167417
          0.0031845880473 0.0046173167417 0.0012589678028 -0.0011072343296 0.0012589678028 0.0019869069323
          0.0012589678028 -0.0011072343296 -8.2783972393e-05 0.0010944753877 0.00070087481779 0.0010944753877
          -8.2783972393e-05 0.0010944753877 0.0048206561095 0.0021955770243 0.0048206561095 0.0010944753877
          0.00070087481779 0.0021955770243 0.00094324420988 0.0021955770243 0.00070087481779 0.0010944753877
          0.0048206561095 0.0021955770243 0.0048206561095 0.0010944753877 -8.2783972393e-05 0.0010944753877
          0.00070087481779 0.0010944753877 -8.2783972393e-05
        </DataArray>
        <DataArray type="Float64" Name="Displacement" NumberOfComponents="3" format="ascii" RangeMin="0.00015164267006" RangeMax="0.00033103191265">
          -0.0001816547415 1.0871691365e-06 -1.0871691365e-06 -0.00016767968134 -3.9597416128e-06 -3.609590244e-06
          -0.00016250579506 -1.2313987476e-05 -2.623254743e-19 -0.00016767968134 -3.9597416128e-06 3.609590244e-06
          -0.0001816547415 1.0871691365e-06 1.0871691365e-06 -0.00016767968134 3.609590244e-06 3.9597416128e-06
          -0.00015524275425 -3.5313739772e-06 3.5313739772e-06 -0.00015437677713 2.8023537057e-06 3.3142276604e-20
          -0.00015524275425 -3.5313739772e-06 -3.5313739772e-06 -0.00016767968134 3.609590244e-06 -3.9597416128e-06
          -0.00016250579506 2.5623362389e-19 1.2313987476e-05 -0.00015437677713 1.1206247856e-19 -2.8023537057e-06
          -0.00015164267006 4.6675138724e-19 2.10303487e-19 -0.00015437677713 -1.894335653e-19 2.8023537057e-06
          -0.00016250579506 -2.3313088241e-19 -1.2313987476e-05 -0.00016767968134 -3.609590244e-06 3.9597416128e-06
          -0.00015524275425 3.5313739772e-06 3.5313739772e-06 -0.00015437677713 -2.8023537057e-06 -1.7919250915e-19
          -0.00015524275425 3.5313739772e-06 -3.5313739772e-06 -0.00016767968134 -3.609590244e-06 -3.9597416128e-06
          -0.0001816547415 -1.0871691365e-06 -1.0871691365e-06 -0.00016767968134 3.9597416128e-06 -3.609590244e-06
          -0.00016250579506 1.2313987476e-05 -7.8617789946e-20 -0.00016767968134 3.9597416128e-06 3.609590244e-06
          -0.0001816547415 -1.0871691365e-06 1.0871691365e-06 -0.0001921584217 -1.0548696046e-05 1.0548696046e-05
          -0.00017853010596 -6.871066924e-06 -2.4440080818e-06 -0.0001780694997 -1.2902541531e-05 -2.2507020165e-19
          -0.00017853010596 -6.871066924e-06 2.4440080818e-06 -0.0001921584217 -1.0548696046e-05 -1.0548696046e-05
          -0.00017853010596 2.4440080818e-06 6.871066924e-06 -0.00017398642778 5.1542758414e-06 -5.1542758414e-06
          -0.00017761227938 8.0769613897e-06 -3.9998408682e-19 -0.00017398642778 5.1542758414e-06 5.1542758414e-06
          -0.00017853010596 2.4440080818e-06 -6.871066924e-06 -0.0001780694997 3.3839075396e-19 1.2902541531e-05
          -0.00017761227938 -3.5706929853e-19 -8.0769613897e-06 -0.00017165818398 1.9904765914e-19 -2.9567071673e-19
          -0.00017761227938 -1.3664615719e-19 8.0769613897e-06 -0.0001780694997 1.5223511408e-19 -1.2902541531e-05
          -0.00017853010596 -2.4440080818e-06 6.871066924e-06 -0.00017398642778 -5.1542758414e-06 -5.1542758414e-06
          -0.00017761227938 -8.0769613897e-06 -3.1972162454e-19 -0.00017398642778 -5.1542758414e-06 5.1542758414e-06
          -0.00017853010596 -2.4440080818e-06 -6.871066924e-06 -0.0001921584217 1.0548696046e-05 1.0548696046e-05
          -0.00017853010596 6.871066924e-06 -2.4440080818e-06 -0.0001780694997 1.2902541531e-05 -5.0917168896e-20
          -0.00017853010596 6.871066924e-06 2.4440080818e-06 -0.0001921584217 1.0548696046e-05 -1.0548696046e-05
          -0.00018341812437 -2.1524577847e-05 2.1524577847e-05 -0.00016711625345 -1.3412106055e-05 4.5009460735e-06
          -0.00016935376538 -1.6044916925e-05 6.3070427092e-20 -0.00016711625345 -1.3412106055e-05 -4.5009460735e-06
          -0.00018341812437 -2.1524577847e-05 -2.1524577847e-05 -0.00016711625345 -4.5009460735e-06 1.3412106055e-05
          -0.00016915426076 6.2017895215e-06 -6.2017895215e-06 -0.00017517659338 7.4466176024e-06 -1.0107683459e-20
          -0.00016915426076 6.2017895215e-06 6.2017895215e-06 -0.00016711625345 -4.5009460735e-06 -1.3412106055e-05
          -0.00016935376538 2.2592140959e-20 1.6044916925e-05 -0.00017517659338 -4.9664007216e-19 -7.4466176024e-06
          -0.0001761070824 -6.5537090033e-19 -1.9263779245e-19 -0.00017517659338 -2.8180478117e-19 7.4466176024e-06
          -0.00016935376538 -1.8626480827e-19 -1.6044916925e-05 -0.00016711625345 4.5009460735e-06 1.3412106055e-05
          -0.00016915426076 -6.2017895215e-06 -6.2017895215e-06 -0.00017517659338 -7.4466176024e-06 -3.3394795244e-19
          -0.00016915426076 -6.2017895215e-06 6.2017895215e-06 -0.00016711625345 4.5009460735e-06 -1.3412106055e-05
          -0.00018341812437 2.1524577847e-05 2.1524577847e-05 -0.00016711625345 1.3412106055e-05 4.5009460735e-06
          -0.00016935376538 1.6044916925e-05 5.9886350922e-20 -0.00016711625345 1.3412106055e-05 -4.5009460735e-06
          -0.00018341812437 2.1524577847e-05 -2.1524577847e-05 -0.00018387943651 -1.6659450012e-05 1.6659450012e-05
          -0.00017201789256 -1.4715372986e-05 6.8761591144e-06 -0.00017660670643 -1.6542230385e-05 -9.9716804323e-21
          -0.00017201789256 -1.4715372986e-05 -6.8761591144e-06 -0.00018387943651 -1.6659450012e-05 -1.6659450012e-05
          -0.00017201789256 -6.8761591144e-06 1.4715372986e-05 -0.00017111896593 2.9079010043e-06 -2.9079010043e-06
          -0.00017870776937 1.1596538466e-06 -1.0026784483e-19 -0.00017111896593 2.9079010043e-06 2.9079010043e-06
          -0.00017201789256 -6.8761591144e-06 -1.4715372986e-05 -0.00017660670643 1.996187659e-19 1.6542230385e-05
          -0.00017870776937 1.6065465538e-19 -1.1596538466e-06 -0.00018186333461 -2.2593489777e-20 -5.2835207302e-19
          -0.00017870776937 3.7882300318e-19 1.1596538466e-06 -0.00017660670643 1.7807679797e-19 -1.6542230385e-05
          -0.00017201789256 6.8761591144e-06 1.4715372986e-05 -0.00017111896593 -2.9079010043e-06 -2.9079010043e-06
          -0.00017870776937 -1.1596538466e-06 -7.1109094335e-20 -0.00017111896593 -2.9079010043e-06 2.9079010043e-06
          -0.00017201789256 6.8761591144e-06 -1.4715372986e-05 -0.00018387943651 1.6659450012e-05 1.6659450012e-05
          -0.00017201789256 1.4715372986e-05 6.8761591144e-06 -0.00017660670643 1.6542230385e-05 -2.6415668259e-19
          -0.00017201789256 1.4715372986e-05 -6.8761591144e-06 -0.00018387943651 1.6659450012e-05 -1.6659450012e-05
          -0.00018996465599 -5.2779531905e-06 5.2779531905e-06 -0.00017589933454 -5.73397929e-06 8.4574775955e-06
          -0.0001790210589 -5.6766385848e-06 4.4389915452e-20 -0.00017589933454 -5.73397929e-06 -8.4574775955e-06
          -0.00018996465599 -5.2779531905e-06 -5.2779531905e-06 -0.00017589933454 -8.4574775955e-06 5.73397929e-06
          -0.00017220217915 -1.1236946686e-06 1.1236946686e-06 -0.00017818266544 -2.8478265646e-06 4.0998011401e-20
          -0.00017220217915 -1.1236946686e-06 -1.1236946686e-06 -0.00017589933454 -8.4574775955e-06 -5.73397929e-06
          -0.0001790210589 1.7633302485e-19 5.6766385848e-06 -0.00017818266544 2.5616851849e-19 2.8478265646e-06
          -0.0001814357527 -5.7149077222e-20 1.8124229557e-19 -0.00017818266544 2.8996200951e-19 -2.8478265646e-06
          -0.0001790210589 2.632003102e-19 -5.6766385848e-06 -0.00017589933454 8.4574775955e-06 5.73397929e-06
          -0.00017220217915 1.1236946686e-06 1.1236946686e-06 -0.00017818266544 2.8478265646e-06 -1.8982486845e-19
          -0.00017220217915 1.1236946686e-06 -1.1236946686e-06 -0.00017589933454 8.4574775955e-06 -5.73397929e-06
          -0.00018996465599 5.2779531905e-06 5.2779531905e-06 -0.00017589933454 5.73397929e-06 8.4574775955e-06
          -0.0001790210589 5.6766385848e-06 -4.0077480852e-19 -0.00017589933454 5.73397929e-06 -8.4574775955e-06
          -0.00018996465599 5.2779531905e-06 -5.2779531905e-06 -0.0001888678646 5.6547699376e-06 -5.6547699376e-06
          -0.00018073663661 2.5671503468e-06 5.2948309938e-06 -0.00018092670992 3.189293728e-06 -1.305450434e-19
          -0.00018073663661 2.5671503468e-06 -5.2948309938e-06 -0.0001888678646 5.6547699376e-06 5.6547699376e-06
          -0.00018073663661 -5.2948309938e-06 -2.5671503468e-06 -0.00017867330383 -3.2504679731e-06 3.2504679731e-06
          -0.00018180126508 -5.0949934153e-06 -2.8501967037e-19 -0.00017867330383 -3.2504679731e-06 -3.2504679731e-06
          -0.00018073663661 -5.2948309938e-06 2.5671503468e-06 -0.00018092670992 -6.1801711644e-20 -3.189293728e-06
          -0.00018180126508 8.662992194e-20 5.0949934153e-06 -0.00018522684952 -2.3253440921e-19 -2.9627648791e-19
          -0.00018180126508 6.1376510305e-20 -5.0949934153e-06 -0.00018092670992 -1.6372835352e-19 3.189293728e-06
          -0.00018073663661 5.2948309938e-06 -2.5671503468e-06 -0.00017867330383 3.2504679731e-06 3.2504679731e-06
          -0.00018180126508 5.0949934153e-06 8.661959752e-20 -0.00017867330383 3.2504679731e-06 -3.2504679731e-06
          -0.00018073663661 5.2948309938e-06 2.5671503468e-06 -0.0001888678646 -5.6547699376e-06 -5.6547699376e-06
          -0.00018073663661 -2.5671503468e-06 5.2948309938e-06 -0.00018092670992 -3.189293728e-06 -3.2647914086e-19
          -0.00018073663661 -2.5671503468e-06 -5.2948309938e-06 -0.0001888678646 -5.6547699376e-06 5.6547699376e-06
          -0.00018236858217 1.3409727584e-05 -1.3409727584e-05 -0.00017464995921 1.0450851599e-05 -2.2791661086e-07
          -0.00017164811109 1.0098552197e-05 -3.8343369805e-19 -0.00017464995921 1.0450851599e-05 2.2791661086e-07
          -0.00018236858217 1.3409727584e-05 1.3409727584e-05 -0.00017464995921 2.2791661086e-07 -1.0450851599e-05
          -0.00016591344935 -1.937150744e-06 1.937150744e-06 -0.00016458824355 -2.4668550435e-06 -9.551880207e-20
          -0.00016591344935 -1.937150744e-06 -1.937150744e-06 -0.00017464995921 2.2791661086e-07 1.0450851599e-05
          -0.00017164811109 -3.4527550446e-19 -1.0098552197e-05 -0.00016458824355 -3.7697556442e-20 2.4668550435e-06
          -0.00016531180756 -6.0252098921e-19 1.9773997616e-19 -0.00016458824355 6.9495381534e-20 -2.4668550435e-06
          -0.00017164811109 -1.4772329253e-19 1.0098552197e-05 -0.00017464995921 -2.2791661086e-07 -1.0450851599e-05
          -0.00016591344935 1.937150744e-06 1.937150744e-06 -0.00016458824355 2.4668550435e-06 1.3847396679e-19
          -0.00016591344935 1.937150744e-06 -1.937150744e-06 -0.00017464995921 -2.2791661086e-07 1.0450851599e-05
          -0.00018236858217 -1.3409727584e-05 -1.3409727584e-05 -0.00017464995921 -1.0450851599e-05 -2.2791661086e-07
          -0.00017164811109 -1.0098552197e-05 -1.40417101e-19 -0.00017464995921 -1.0450851599e-05 2.2791661086e-07
          -0.00018236858217 -1.3409727584e-05 1.3409727584e-05 -0.00017333330377 1.0914228901e-05 -1.0914228901e-05
          -0.00017079688421 8.8036202085e-06 -2.9543939757e-06 -0.00016530983807 8.0018796755e-06 1.5555521252e-19
          -0.00017079688421 8.8036202085e-06 2.9543939757e-06 -0.00017333330377 1.0914228901e-05 1.0914228901e-05
          -0.00017079688421 2.9543939757e-06 -8.8036202085e-06 -0.00016399025144 -4.4241464101e-07 4.4241464101e-07
          -0.00015956584973 2.2837287069e-07 -2.5761369727e-20 -0.00016399025144 -4.4241464101e-07 -4.4241464101e-07
          -0.00017079688421 2.9543939757e-06 8.8036202085e-06 -0.00016530983807 -3.1421962436e-19 -8.0018796755e-06
          -0.00015956584973 -2.4708495198e-19 -2.2837287069e-07 -0.00015758173685 -2.3292874243e-22 5.293535562e-19
          -0.00015956584973 -3.2449680689e-19 2.2837287069e-07 -0.00016530983807 1.8730031722e-19 8.0018796755e-06
          -0.00017079688421 -2.9543939757e-06 -8.8036202085e-06 -0.00016399025144 4.4241464101e-07 4.4241464101e-07
          -0.00015956584973 -2.2837287069e-07 4.090611301e-19 -0.00016399025144 4.4241464101e-07 -4.4241464101e-07
          -0.00017079688421 -2.9543939757e-06 8.8036202085e-06 -0.00017333330377 -1.0914228901e-05 -1.0914228901e-05
          -0.00017079688421 -8.8036202085e-06 -2.9543939757e-06 -0.00016530983807 -8.0018796755e-06 2.9082271946e-19
          -0.00017079688421 -8.8036202085e-06 2.9543939757e-06 -0.00017333330377 -1.0914228901e-05 1.0914228901e-05
          -0.00017234192445 3.854341886e-06 -3.854341886e-06 -0.00017300024293 3.0996711759e-06 -3.6675156679e-06
          -0.00016785438723 2.0544136321e-06 4.4753686421e-20 -0.00017300024293 3.0996711759e-06 3.6675156679e-06
          -0.00017234192445 3.854341886e-06 3.854341886e-06 -0.00017300024293 3.6675156679e-06 -3.0996711759e-06
          -0.00016840895596 1.2315692691e-06 -1.2315692691e-06 -0.00016365012106 2.3261574156e-06 2.6246034356e-19
          -0.00016840895596 1.2315692691e-06 1.2315692691e-06 -0.00017300024293 3.6675156679e-06 3.0996711759e-06
          -0.00016785438723 -2.4591645103e-19 -2.0544136321e-06 -0.00016365012106 -2.0719396726e-19 -2.3261574156e-06
          -0.00016058411404 -2.3181647034e-19 4.336762232e-19 -0.00016365012106 -1.1240509798e-19 2.3261574156e-06
          -0.00016785438723 -7.6458483638e-20 2.0544136321e-06 -0.00017300024293 -3.6675156679e-06 -3.0996711759e-06
          -0.00016840895596 -1.2315692691e-06 -1.2315692691e-06 -0.00016365012106 -2.3261574156e-06 -7.3656992693e-19
          -0.00016840895596 -1.2315692691e-06 1.2315692691e-06 -0.00017300024293 -3.6675156679e-06 3.0996711759e-06
          -0.00017234192445 -3.854341886e-06 -3.854341886e-06 -0.00017300024293 -3.0996711759e-06 -3.6675156679e-06
          -0.00016785438723 -2.0544136321e-06 -2.6771989687e-20 -0.00017300024293 -3.0996711759e-06 3.6675156679e-06
          -0.00017234192445 -3.854341886e-06 3.854341886e-06 -0.00017258192262 -7.52884079e-06 7.52884079e-06
          -0.00017227331209 -7.4101148573e-06 -9.2380770865e-08 -0.00016859181595 -7.4754828168e-06 5.2437764884e-19
          -0.00017227331209 -7.4101148573e-06 9.2380770865e-08 -0.00017258192262 -7.52884079e-06 -7.52884079e-06
          -0.00017227331209 9.2380770865e-08 7.4101148573e-06 -0.00016907040856 -8.5551587303e-07 8.5551587303e-07
          -0.00016546819894 5.3191515454e-07 3.4277588445e-19 -0.00016907040856 -8.5551587303e-07 -8.5551587302e-07
          -0.00017227331209 9.2380770864e-08 -7.4101148573e-06 -0.00016859181595 -1.9085512404e-19 7.4754828168e-06
          -0.00016546819894 -8.295852565e-20 -5.3191515454e-07 -0.00016266168557 -1.7593241446e-19 2.8866877196e-19
          -0.00016546819894 1.4761877538e-19 5.3191515454e-07 -0.00016859181595 -3.0050859352e-20 -7.4754828168e-06
          -0.00017227331209 -9.2380770865e-08 7.4101148573e-06 -0.00016907040856 8.5551587303e-07 8.5551587303e-07
          -0.00016546819894 -5.3191515454e-07 -2.0023636884e-20 -0.00016907040856 8.5551587303e-07 -8.5551587303e-07
          -0.00017227331209 -9.2380770865e-08 -7.4101148573e-06 -0.00017258192262 7.52884079e-06 7.52884079e-06
          -0.00017227331209 7.4101148573e-06 -9.2380770865e-08 -0.00016859181595 7.4754828168e-06 1.5606056725e-19
          -0.00017227331209 7.4101148573e-06 9.2380770865e-08 -0.00017258192262 7.52884079e-06 -7.52884079e-06
          -0.00018640978407 -1.5344877382e-05 1.5344877382e-05 -0.00018485210948 -1.5929265279e-05 3.5555687343e-06
          -0.00018266241717 -1.4736679414e-05 3.2578128375e-19 -0.00018485210948 -1.5929265279e-05 -3.5555687343e-06
          -0.00018640978407 -1.5344877382e-05 -1.5344877382e-05 -0.00018485210948 -3.5555687343e-06 1.5929265279e-05
          -0.00018288110391 -3.7026968798e-06 3.7026968798e-06 -0.00018069794983 -2.4702985493e-06 4.0020846653e-19
          -0.00018288110391 -3.7026968798e-06 -3.7026968798e-06 -0.00018485210948 -3.5555687343e-06 -1.5929265279e-05
          -0.00018266241717 -2.4986941225e-19 1.4736679414e-05 -0.00018069794983 3.6079667876e-19 2.4702985493e-06
          -0.00017871497989 -4.0720615672e-20 8.3695722019e-20 -0.00018069794983 -3.1779550319e-19 -2.4702985493e-06
          -0.00018266241717 -2.6056509722e-19 -1.4736679414e-05 -0.00018485210948 3.5555687343e-06 1.5929265279e-05
          -0.00018288110391 3.7026968798e-06 3.7026968798e-06 -0.00018069794983 2.4702985493e-06 -1.2320753284e-19
          -0.00018288110391 3.7026968798e-06 -3.7026968798e-06 -0.00018485210948 3.5555687343e-06 -1.5929265279e-05
          -0.00018640978407 1.5344877382e-05 1.5344877382e-05 -0.00018485210948 1.5929265279e-05 3.5555687343e-06
          -0.00018266241717 1.4736679414e-05 1.0262189999e-19 -0.00018485210948 1.5929265279e-05 -3.5555687343e-06
          -0.00018640978407 1.5344877382e-05 -1.5344877382e-05 -0.00020900986275 -1.9652426991e-05 1.9652426991e-05
          -0.00020553681024 -2.1443379897e-05 6.6099981305e-06 -0.0002042194292 -1.8922326108e-05 -2.2415255364e-19
          -0.00020553681024 -2.1443379897e-05 -6.6099981305e-06 -0.00020900986275 -1.9652426991e-05 -1.9652426991e-05
          -0.00020553681024 -6.6099981305e-06 2.1443379897e-05 -0.00020271185687 -6.8218231175e-06 6.8218231175e-06
          -0.00020139529637 -5.7104500355e-06 2.1442606825e-19 -0.00020271185687 -6.8218231175e-06 -6.8218231175e-06
          -0.00020553681024 -6.6099981305e-06 -2.1443379897e-05 -0.0002042194292 4.7237595452e-20 1.8922326108e-05
          -0.00020139529637 -1.5925046796e-19 5.7104500355e-06 -0.00019989438997 -1.433855659e-19 1.7588566528e-19
          -0.00020139529637 1.2827594559e-20 -5.7104500355e-06 -0.0002042194292 2.598291128e-19 -1.8922326108e-05
          -0.00020553681024 6.6099981305e-06 2.1443379897e-05 -0.00020271185687 6.8218231175e-06 6.8218231175e-06
          -0.00020139529637 5.7104500355e-06 -1.9149265458e-19 -0.00020271185687 6.8218231175e-06 -6.8218231175e-06
          -0.00020553681024 6.6099981305e-06 -2.1443379897e-05 -0.00020900986275 1.9652426991e-05 1.9652426991e-05
          -0.00020553681024 2.1443379897e-05 6.6099981305e-06 -0.0002042194292 1.8922326108e-05 -5.0843232684e-19
          -0.00020553681024 2.1443379897e-05 -6.6099981305e-06 -0.00020900986275 1.9652426991e-05 -1.9652426991e-05
          -0.00023467674547 -2.1020291739e-05 2.1020291739e-05 -0.00023102464732 -2.3949106513e-05 7.9494555708e-06
          -0.00023027827138 -2.0420711042e-05 3.1547827106e-19 -0.00023102464732 -2.3949106513e-05 -7.9494555708e-06
          -0.00023467674547 -2.1020291739e-05 -2.1020291739e-05 -0.00023102464732 -7.9494555708e-06 2.3949106513e-05
          -0.00022811641681 -8.7197814277e-06 8.7197814277e-06 -0.00022740393043 -7.5724368893e-06 -2.0190398858e-19