<?xml version="1.0"?>
<VTKFile type="UnstructuredGrid" version="0.1" byte_order="LittleEndian" compressor="vtkZLibDataCompressor">
  <UnstructuredGrid>
    <Piece NumberOfPoints="2" NumberOfCells="2">
      <PointData>
        <DataArray type="Float64" Name="Acceleration" NumberOfComponents="3" format="ascii" RangeMin="7320487.7811" RangeMax="7320487.7811">
          -7320487.7811 4.8569103114e-23 4.8569103114e-23 7320487.7811 -4.8569103114e-23 -4.8569103114e-23
        </DataArray>
        <DataArray type="Float64" Name="Displacement" NumberOfComponents="3" format="ascii" RangeMin="0.0023934962526" RangeMax="0.1">
          0.1 1.8819696844e-25 1.8819696844e-25 0.0023934962526 1.8818434666e-25 1.8818434666e-25
        </DataArray>
        <DataArray type="Float64" Name="Force" NumberOfComponents="3" format="ascii" RangeMin="1.1419960938e+11" RangeMax="1.1419960938e+11">
          -1.1419960938e+11 7.5767800857e-19 7.5767800857e-19 1.1419960938e+11 -7.5767800857e-19 -7.5767800857e-19
        </DataArray>
        <DataArray type="Float64" Name="Force_Density" NumberOfComponents="3" format="ascii" RangeMin="57099804692" RangeMax="57099804692">
          -57099804692 3.7883900429e-19 3.7883900429e-19 57099804692 -3.7883900429e-19 -3.7883900429e-19
        </DataArray>
        <DataArray type="Int32" Name="ID" format="ascii" RangeMin="0" RangeMax="1">
          0 1
        </DataArray>
        <DataArray type="Int32" Name="Proc_Num" format="ascii" RangeMin="0" RangeMax="0">
          0 0
        </DataArray>
        <DataArray type="Float64" Name="Velocity" NumberOfComponents="3" format="ascii" RangeMin="2.7205009204e-20" RangeMax="184.78372057">
          0 1.923684649e-20 1.923684649e-20 184.78372057 1.9234322135e-20 1.9234322135e-20
        </DataArray>
      </PointData>
      <CellData>
      </CellData>
      <Points>
        <DataArray type="Float64" Name="Points" NumberOfComponents="3" format="ascii" RangeMin="1" RangeMax="1">
          -1 0 0 1 0 0
        </DataArray>
      </Points>
      <Cells>
        <DataArray type="Int64" Name="connectivity" format="ascii" RangeMin="0" RangeMax="1">
          0 1
        </DataArray>
        <DataArray type="Int64" Name="offsets" format="ascii" RangeMin="1" RangeMax="2">
          1 2
        </DataArray>
        <DataArray type="UInt8" Name="types" format="ascii" RangeMin="1" RangeMax="1">
          1 1
        </DataArray>
      </Cells>
    </Piece>
  </UnstructuredGrid>
</VTKFile>
