<?xml version="1.0"?>
<VTKFile type="UnstructuredGrid" version="0.1" byte_order="LittleEndian" compressor="vtkZLibDataCompressor">
  <UnstructuredGrid>
    <Piece NumberOfPoints="2" NumberOfCells="2">
      <PointData>
        <DataArray type="Float64" Name="Acceleration" NumberOfComponents="3" format="ascii" RangeMin="7154758.9031" RangeMax="7154758.9031">
          -7154758.9031 1.8965788289e-22 1.8965788289e-22 7154758.9031 -1.8965788289e-22 -1.8965788289e-22
        </DataArray>
        <DataArray type="Float64" Name="Displacement" NumberOfComponents="3" format="ascii" RangeMin="0.0046032146254" RangeMax="0.1">
          0.1 3.9603341797e-25 3.9603341797e-25 0.0046032146254 3.9598293087e-25 3.9598293087e-25
        </DataArray>
        <DataArray type="Float64" Name="Force" NumberOfComponents="3" format="ascii" RangeMin="1.1161423889e+11" RangeMax="1.1161423889e+11">
          -1.1161423889e+11 2.9586629731e-18 2.9586629731e-18 1.1161423889e+11 -2.9586629731e-18 -2.9586629731e-18
        </DataArray>
        <DataArray type="Float64" Name="Force_Density" NumberOfComponents="3" format="ascii" RangeMin="55807119444" RangeMax="55807119444">
          -55807119444 1.4793314866e-18 1.4793314866e-18 55807119444 -1.4793314866e-18 -1.4793314866e-18
        </DataArray>
        <DataArray type="Int32" Name="ID" format="ascii" RangeMin="0" RangeMax="1">
          0 1
        </DataArray>
        <DataArray type="Int32" Name="Proc_Num" format="ascii" RangeMin="0" RangeMax="0">
          0 0
        </DataArray>
        <DataArray type="Float64" Name="Velocity" NumberOfComponents="3" format="ascii" RangeMin="3.1580015933e-20" RangeMax="257.15995399">
          0 2.2330443416e-20 2.2330443416e-20 257.15995399 2.2325394706e-20 2.2325394706e-20
        </DataArray>
      </PointData>
      <CellData>
      </CellData>
      <Points>
        <DataArray type="Float64" Name="Points" NumberOfComponents="3" format="ascii" RangeMin="1" RangeMax="1">
          -1 0 0 1 0 0
        </DataArray>
      </Points>
      <Cells>
        <DataArray type="Int64" Name="connectivity" format="ascii" RangeMin="0" RangeMax="1">
          0 1
        </DataArray>
        <DataArray type="Int64" Name="offsets" format="ascii" RangeMin="1" RangeMax="2">
          1 2
        </DataArray>
        <DataArray type="UInt8" Name="types" format="ascii" RangeMin="1" RangeMax="1">
          1 1
        </DataArray>
      </Cells>
    </Piece>
  </UnstructuredGrid>
</VTKFile>
