<?xml version="1.0"?>
<VTKFile type="UnstructuredGrid" version="0.1" byte_order="LittleEndian" compressor="vtkZLibDataCompressor">
  <UnstructuredGrid>
    <Piece NumberOfPoints="2" NumberOfCells="2">
      <PointData>
        <DataArray type="Float64" Name="Acceleration" NumberOfComponents="3" format="ascii" RangeMin="7486712.4142" RangeMax="7486712.4142">
          -7486712.4142 0 0 7486712.4142 0 0
        </DataArray>
        <DataArray type="Float64" Name="Displacement" NumberOfComponents="3" format="ascii" RangeMin="0.00017716781036" RangeMax="0.1">
          0.1 5.9069904583e-27 5.9069904583e-27 0.00017716781036 5.9069904583e-27 5.9069904583e-27
        </DataArray>
        <DataArray type="Float64" Name="Force" NumberOfComponents="3" format="ascii" RangeMin="1.1679271366e+11" RangeMax="1.1679271366e+11">
          -1.1679271366e+11 0 0 1.1679271366e+11 0 0
        </DataArray>
        <DataArray type="Float64" Name="Force_Density" NumberOfComponents="3" format="ascii" RangeMin="58396356831" RangeMax="58396356831">
          -58396356831 0 0 58396356831 0 0
        </DataArray>
        <DataArray type="Int32" Name="ID" format="ascii" RangeMin="0" RangeMax="1">
          0 1
        </DataArray>
        <DataArray type="Int32" Name="Proc_Num" format="ascii" RangeMin="0" RangeMax="0">
          0 0
        </DataArray>
        <DataArray type="Float64" Name="Velocity" NumberOfComponents="3" format="ascii" RangeMin="1.6707492038e-21" RangeMax="36.433562071">
          0 1.1813980917e-21 1.1813980917e-21 36.433562071 1.1813980917e-21 1.1813980917e-21
        </DataArray>
      </PointData>
      <CellData>
      </CellData>
      <Points>
        <DataArray type="Float64" Name="Points" NumberOfComponents="3" format="ascii" RangeMin="1" RangeMax="1">
          -1 0 0 1 0 0
        </DataArray>
      </Points>
      <Cells>
        <DataArray type="Int64" Name="connectivity" format="ascii" RangeMin="0" RangeMax="1">
          0 1
        </DataArray>
        <DataArray type="Int64" Name="offsets" format="ascii" RangeMin="1" RangeMax="2">
          1 2
        </DataArray>
        <DataArray type="UInt8" Name="types" format="ascii" RangeMin="1" RangeMax="1">
          1 1
        </DataArray>
      </Cells>
    </Piece>
  </UnstructuredGrid>
</VTKFile>
