<?xml version="1.0"?>
<!--
Peridigm Version XXX: Sat Mar 13 23:02:35 2010
-->
<VTKFile type="UnstructuredGrid" version="0.1" byte_order="LittleEndian">
  <UnstructuredGrid>
    <Piece NumberOfPoints="3" NumberOfCells="3">
      <Points>
        <DataArray type="Float64" Name="Points" NumberOfComponents="3" format="ascii">
         -9.999708949375000e-01 0.000000000000000e+00 0.000000000000000e+00
         9.552026406312603e-23 0.000000000000000e+00 0.000000000000000e+00
         9.999708949375000e-01 0.000000000000000e+00 0.000000000000000e+00
        </DataArray>
      </Points>
      <Cells>
        <DataArray type="Int64" Name="connectivity" format="ascii" >
         0 1 2
        </DataArray>
        <DataArray type="Int64" Name="offsets" format="ascii" >
         1 2 3
        </DataArray>
        <DataArray type="UInt8" Name="types" format="ascii" >
         1 1 1
        </DataArray>
      </Cells>
      <CellData>
      </CellData>
      <PointData>
        <DataArray type="Float64" Name="X_Position" format="ascii" >
         -9.999708949375000e-01 9.552026406312603e-23 9.999708949375000e-01
        </DataArray>
        <DataArray type="Float64" Name="Y_Position" format="ascii" >
         0.000000000000000e+00 0.000000000000000e+00 0.000000000000000e+00
        </DataArray>
        <DataArray type="Float64" Name="Z_Position" format="ascii" >
         0.000000000000000e+00 0.000000000000000e+00 0.000000000000000e+00
        </DataArray>
        <DataArray type="Float64" Name="X_Velocity" format="ascii" >
         9.002630546877518e-01 2.388006601578151e-18 -9.002630546877518e-01
        </DataArray>
        <DataArray type="Float64" Name="Y_Velocity" format="ascii" >
         0.000000000000000e+00 0.000000000000000e+00 0.000000000000000e+00
        </DataArray>
        <DataArray type="Float64" Name="Z_Velocity" format="ascii" >
         0.000000000000000e+00 0.000000000000000e+00 0.000000000000000e+00
        </DataArray>
        <DataArray type="Int64" Name="ID" format="ascii" >
         0 1 2
        </DataArray>
        <DataArray type="Float64" Name="Dilatation" format="ascii" >
         -8.731518749993672e-05 -8.731518749993672e-05 -8.731518749993672e-05
        </DataArray>
        <DataArray type="Float64" Name="Weighted_Volume" format="ascii" >
         1.000000000000000e+00 2.000000000000000e+00 1.000000000000000e+00
        </DataArray>
      </PointData>
    </Piece>
  </UnstructuredGrid>
</VTKFile>
