<?xml version="1.0"?>
<!--
Peridigm Version XXX: Sat Mar 13 23:02:35 2010
-->
<VTKFile type="UnstructuredGrid" version="0.1" byte_order="LittleEndian">
  <UnstructuredGrid>
    <Piece NumberOfPoints="3" NumberOfCells="3">
      <Points>
        <DataArray type="Float64" Name="Points" NumberOfComponents="3" format="ascii">
         -9.999543945961872e-01 0.000000000000000e+00 0.000000000000000e+00
         -4.776013203156299e-23 0.000000000000000e+00 0.000000000000000e+00
         9.999543945961872e-01 0.000000000000000e+00 0.000000000000000e+00
        </DataArray>
      </Points>
      <Cells>
        <DataArray type="Int64" Name="connectivity" format="ascii" >
         0 1 2
        </DataArray>
        <DataArray type="Int64" Name="offsets" format="ascii" >
         1 2 3
        </DataArray>
        <DataArray type="UInt8" Name="types" format="ascii" >
         1 1 1
        </DataArray>
      </Cells>
      <CellData>
      </CellData>
      <PointData>
        <DataArray type="Float64" Name="X_Position" format="ascii" >
         -9.999543945961872e-01 -4.776013203156299e-23 9.999543945961872e-01
        </DataArray>
        <DataArray type="Float64" Name="Y_Position" format="ascii" >
         0.000000000000000e+00 0.000000000000000e+00 0.000000000000000e+00
        </DataArray>
        <DataArray type="Float64" Name="Z_Position" format="ascii" >
         0.000000000000000e+00 0.000000000000000e+00 0.000000000000000e+00
        </DataArray>
        <DataArray type="Float64" Name="X_Velocity" format="ascii" >
         7.312081926250510e-01 -1.194003300789075e-17 -7.312081926250510e-01
        </DataArray>
        <DataArray type="Float64" Name="Y_Velocity" format="ascii" >
         0.000000000000000e+00 0.000000000000000e+00 0.000000000000000e+00
        </DataArray>
        <DataArray type="Float64" Name="Z_Velocity" format="ascii" >
         0.000000000000000e+00 0.000000000000000e+00 0.000000000000000e+00
        </DataArray>
        <DataArray type="Int64" Name="ID" format="ascii" >
         0 1 2
        </DataArray>
        <DataArray type="Float64" Name="Dilatation" format="ascii" >
         -1.368162114384619e-04 -1.368162114384619e-04 -1.368162114384619e-04
        </DataArray>
        <DataArray type="Float64" Name="Weighted_Volume" format="ascii" >
         1.000000000000000e+00 2.000000000000000e+00 1.000000000000000e+00
        </DataArray>
      </PointData>
    </Piece>
  </UnstructuredGrid>
</VTKFile>
