<?xml version="1.0"?>
<VTKFile type="UnstructuredGrid" version="0.1" byte_order="LittleEndian" compressor="vtkZLibDataCompressor">
  <UnstructuredGrid>
    <Piece NumberOfPoints="3" NumberOfCells="3">
      <PointData>
        <DataArray type="Float64" Name="Displacement" NumberOfComponents="3" format="ascii" RangeMin="9.5520264063e-23" RangeMax="2.91050625e-05">
          2.91050625e-05 0 0 9.5520264063e-23 0 0
          -2.91050625e-05 0 0
        </DataArray>
        <DataArray type="Float64" Name="Velocity" NumberOfComponents="3" format="ascii" RangeMin="7.1640198047e-18" RangeMax="0.90026305469">
          0.90026305469 0 0 7.1640198047e-18 0 0
          -0.90026305469 0 0
        </DataArray>
        <DataArray type="Int32" Name="Id" format="ascii" RangeMin="0" RangeMax="2">
          0 1 2
        </DataArray>
        <DataArray type="Float64" Name="Dilatation" format="ascii" RangeMin="-8.73151875e-05" RangeMax="-8.73151875e-05">
          -8.73151875e-05 -8.73151875e-05 -8.73151875e-05
        </DataArray>
        <DataArray type="Float64" Name="Weighted_Volume" format="ascii" RangeMin="1" RangeMax="2">
          1 2 1
        </DataArray>
      </PointData>
      <CellData>
      </CellData>
      <Points>
        <DataArray type="Float64" Name="Points" NumberOfComponents="3" format="ascii" RangeMin="0" RangeMax="1">
          -1 0 0 0 0 0
          1 0 0
        </DataArray>
      </Points>
      <Cells>
        <DataArray type="Int64" Name="connectivity" format="ascii" RangeMin="0" RangeMax="2">
          0 1 2
        </DataArray>
        <DataArray type="Int64" Name="offsets" format="ascii" RangeMin="1" RangeMax="3">
          1 2 3
        </DataArray>
        <DataArray type="UInt8" Name="types" format="ascii" RangeMin="1" RangeMax="1">
          1 1 1
        </DataArray>
      </Cells>
    </Piece>
  </UnstructuredGrid>
</VTKFile>
