<?xml version="1.0"?>
<VTKFile type="UnstructuredGrid" version="0.1" byte_order="LittleEndian" compressor="vtkZLibDataCompressor">
  <UnstructuredGrid>
    <Piece NumberOfPoints="12" NumberOfCells="12">
      <PointData>
        <DataArray type="Float64" Name="Dilatation" format="ascii" RangeMin="-0.017524865582" RangeMax="-0.015649969378">
          -0.017524865582 -0.015649969378 -0.017524865582 -0.017524865582 -0.015649969378 -0.017524865582
          -0.017524865582 -0.015649969378 -0.017524865582 -0.017524865582 -0.015649969378 -0.017524865582
        </DataArray>
        <DataArray type="Float64" Name="Displacement" NumberOfComponents="3" format="ascii" RangeMin="0" RangeMax="0.075473286765">
          0 0 0 -0.0375 -0.0074668676577 -0.0074668676577
          -0.075 7.9229671584e-17 -5.6934879183e-17 0 0.005967286449 0
          -0.0375 0.013434154107 -0.0074668676577 -0.075 0.005967286449 -9.9071999402e-17
          0 0 0.005967286449 -0.0375 -0.0074668676577 0.013434154107
          -0.075 6.2267568756e-17 0.005967286449 0 0.005967286449 0.005967286449
          -0.0375 0.013434154107 0.013434154107 -0.075 0.005967286449 0.005967286449
        </DataArray>
        <DataArray type="Float64" Name="Force_Density" NumberOfComponents="3" format="ascii" RangeMin="7.155460027e-05" RangeMax="9883121621.5">
          -9883121621.5 4.6014785767e-05 1.847743988e-06 -8.8214874268e-06 7.0989131927e-05 -1.6689300537e-06
          9883121621.5 3.6120414734e-05 0.0001026391983 -9883121621.5 -1.4945864677e-05 1.5497207642e-05
          1.2636184692e-05 -6.7818909883e-05 9.1552734375e-05 9883121621.5 -9.0456517216e-05 6.5922737122e-05
          -9883121621.5 5.7816505432e-05 5.2232295275e-05 6.0558319092e-05 4.243850708e-05 -6.5039843321e-05
          9883121621.5 2.2888183594e-05 -0.0001100357117 -9883121621.5 -0.00010911747813 -9.1280788183e-05
          3.6716461182e-05 -4.1827559471e-05 -6.6116452217e-05 9883121621.5 4.8168003559e-05 4.6081840992e-06
        </DataArray>
        <DataArray type="Int32" Name="ID" format="ascii" RangeMin="0" RangeMax="11">
          0 1 2 3 4 5
          6 7 8 9 10 11
        </DataArray>
        <DataArray type="Int32" Name="Proc_Num" format="ascii" RangeMin="0" RangeMax="0">
          0 0 0 0 0 0
          0 0 0 0 0 0
        </DataArray>
        <DataArray type="Float64" Name="Velocity" NumberOfComponents="3" format="ascii" RangeMin="0" RangeMax="2011.6120905">
          0 0 0 -1000 -204.73098309 -204.73098309
          -2000 7.4497314859e-11 -6.777810993e-11 0 152.61586213 0
          -1000 357.34684522 -204.73098309 -2000 152.61586213 1.6240990074e-11
          0 0 152.61586213 -1000 -204.73098309 357.34684522
          -2000 3.791991291e-11 152.61586213 0 152.61586213 152.61586213
          -1000 357.34684522 357.34684522 -2000 152.61586213 152.61586213
        </DataArray>
        <DataArray type="Float64" Name="Weighted_Volume" format="ascii" RangeMin="12" RangeMax="20">
          12 20 12 12 20 12
          12 20 12 12 20 12
        </DataArray>
      </PointData>
      <CellData>
      </CellData>
      <Points>
        <DataArray type="Float64" Name="Points" NumberOfComponents="3" format="ascii" RangeMin="0.70710678119" RangeMax="1.2247448714">
          -1 -0.5 -0.5 0 -0.5 -0.5
          1 -0.5 -0.5 -1 0.5 -0.5
          0 0.5 -0.5 1 0.5 -0.5
          -1 -0.5 0.5 0 -0.5 0.5
          1 -0.5 0.5 -1 0.5 0.5
          0 0.5 0.5 1 0.5 0.5
        </DataArray>
      </Points>
      <Cells>
        <DataArray type="Int64" Name="connectivity" format="ascii" RangeMin="0" RangeMax="11">
          0 1 2 3 4 5
          6 7 8 9 10 11
        </DataArray>
        <DataArray type="Int64" Name="offsets" format="ascii" RangeMin="1" RangeMax="12">
          1 2 3 4 5 6
          7 8 9 10 11 12
        </DataArray>
        <DataArray type="UInt8" Name="types" format="ascii" RangeMin="1" RangeMax="1">
          1 1 1 1 1 1
          1 1 1 1 1 1
        </DataArray>
      </Cells>
    </Piece>
  </UnstructuredGrid>
</VTKFile>
