<?xml version="1.0"?>
<VTKFile type="UnstructuredGrid" version="0.1" byte_order="LittleEndian" compressor="vtkZLibDataCompressor">
  <UnstructuredGrid>
    <Piece NumberOfPoints="12" NumberOfCells="12">
      <PointData>
        <DataArray type="Float64" Name="Dilatation" format="ascii" RangeMin="-0.010583521371" RangeMax="-0.0095731532627">
          -0.010583521371 -0.0095731532627 -0.010583521371 -0.010583521371 -0.0095731532627 -0.010583521371
          -0.010583521371 -0.0095731532627 -0.010583521371 -0.010583521371 -0.0095731532627 -0.010583521371
        </DataArray>
        <DataArray type="Float64" Name="Displacement" NumberOfComponents="3" format="ascii" RangeMin="0" RangeMax="0.045293797334">
          0 0 0 -0.0225 -0.004426885034 -0.004426885034
          -0.045 1.0994314857e-16 4.1500665637e-17 0 0.0036419827646 0
          -0.0225 0.0080688677986 -0.004426885034 -0.045 0.0036419827646 1.3535513092e-16
          0 0 0.0036419827646 -0.0225 -0.004426885034 0.0080688677986
          -0.045 6.1855470408e-17 0.0036419827646 0 0.0036419827646 0.0036419827646
          -0.0225 0.0080688677986 0.0080688677986 -0.045 0.0036419827646 0.0036419827646
        </DataArray>
        <DataArray type="Float64" Name="Force_Density" NumberOfComponents="3" format="ascii" RangeMin="4.8848542889e-06" RangeMax="5993621468.4">
          -5993621468.4 6.2555074692e-05 2.0086765289e-05 2.9504299164e-06 3.2484531403e-06 2.1457672119e-06
          5993621468.4 0 4.3630599976e-05 -5993621468.4 -1.3264128938e-05 1.2040138245e-05
          -1.7046928406e-05 -3.5874545574e-06 -2.0980834961e-05 5993621468.4 3.031634429e-05 1.2934207916e-05
          -5993621468.4 3.19480896e-05 1.0066665709e-05 -1.7046928406e-05 -3.5047531128e-05 3.590574488e-05
          5993621468.4 3.2186508179e-05 -3.2247509807e-05 -5993621468.4 -4.3739564717e-05 -4.3367035687e-05
          -3.6716461182e-05 -1.3913959265e-06 2.2947788239e-05 5993621468.4 -6.3674524426e-05 -6.297416985e-05
        </DataArray>
        <DataArray type="Int32" Name="ID" format="ascii" RangeMin="0" RangeMax="11">
          0 1 2 3 4 5
          6 7 8 9 10 11
        </DataArray>
        <DataArray type="Int32" Name="Proc_Num" format="ascii" RangeMin="0" RangeMax="0">
          0 0 0 0 0 0
          0 0 0 0 0 0
        </DataArray>
        <DataArray type="Float64" Name="Velocity" NumberOfComponents="3" format="ascii" RangeMin="0" RangeMax="2012.4922144">
          0 0 0 -1000 -199.83234082 -199.83234083
          -2000 1.2221987316e-10 -9.7489562919e-11 0 158.31126471 0
          -1000 358.14360554 -199.83234082 -2000 158.31126471 8.021293594e-11
          0 0 158.31126471 -1000 -199.83234082 358.14360554
          -2000 -2.7160549686e-11 158.31126471 0 158.31126471 158.31126471
          -1000 358.14360554 358.14360554 -2000 158.31126471 158.31126471
        </DataArray>
        <DataArray type="Float64" Name="Weighted_Volume" format="ascii" RangeMin="12" RangeMax="20">
          12 20 12 12 20 12
          12 20 12 12 20 12
        </DataArray>
      </PointData>
      <CellData>
      </CellData>
      <Points>
        <DataArray type="Float64" Name="Points" NumberOfComponents="3" format="ascii" RangeMin="0.70710678119" RangeMax="1.2247448714">
          -1 -0.5 -0.5 0 -0.5 -0.5
          1 -0.5 -0.5 -1 0.5 -0.5
          0 0.5 -0.5 1 0.5 -0.5
          -1 -0.5 0.5 0 -0.5 0.5
          1 -0.5 0.5 -1 0.5 0.5
          0 0.5 0.5 1 0.5 0.5
        </DataArray>
      </Points>
      <Cells>
        <DataArray type="Int64" Name="connectivity" format="ascii" RangeMin="0" RangeMax="11">
          0 1 2 3 4 5
          6 7 8 9 10 11
        </DataArray>
        <DataArray type="Int64" Name="offsets" format="ascii" RangeMin="1" RangeMax="12">
          1 2 3 4 5 6
          7 8 9 10 11 12
        </DataArray>
        <DataArray type="UInt8" Name="types" format="ascii" RangeMin="1" RangeMax="1">
          1 1 1 1 1 1
          1 1 1 1 1 1
        </DataArray>
      </Cells>
    </Piece>
  </UnstructuredGrid>
</VTKFile>
