<?xml version="1.0"?>
<VTKFile type="UnstructuredGrid" version="0.1" byte_order="LittleEndian" compressor="vtkZLibDataCompressor">
  <UnstructuredGrid>
    <Piece NumberOfPoints="12" NumberOfCells="12">
      <PointData>
        <DataArray type="Float64" Name="Dilatation" format="ascii" RangeMin="-0.0023703081217" RangeMax="-0.0021744593208">
          -0.0023703081217 -0.0021744593208 -0.0023703081217 -0.0023703081217 -0.0021744593208 -0.0023703081217
          -0.0023703081217 -0.0021744593208 -0.0023703081217 -0.0023703081217 -0.0021744593208 -0.0023703081217
        </DataArray>
        <DataArray type="Float64" Name="Displacement" NumberOfComponents="3" format="ascii" RangeMin="0" RangeMax="0.010067755779">
          0 0 0 -0.005 -0.00097052474622 -0.00097052474622
          -0.01 1.2421144707e-16 1.1213508276e-16 0 0.00082453211708 0
          -0.005 0.0017950568633 -0.00097052474622 -0.01 0.00082453211708 6.8172050094e-17
          0 0 0.00082453211708 -0.005 -0.00097052474622 0.0017950568633
          -0.01 2.6791473389e-16 0.00082453211708 0 0.00082453211708 0.00082453211708
          -0.005 0.0017950568633 0.0017950568633 -0.01 0.00082453211708 0.00082453211708
        </DataArray>
        <DataArray type="Float64" Name="Force_Density" NumberOfComponents="3" format="ascii" RangeMin="7.2187047854e-05" RangeMax="1348431872.6">
          -1348431872.6 -4.9479305744e-05 -5.9902667999e-06 -1.4901161194e-08 -5.8695673943e-05 4.2021274567e-05
          1348431872.6 -7.3924660683e-05 -5.8561563492e-06 -1348431872.6 4.316122795e-05 -4.3287873268e-05
          -0.00010350346565 1.4292745618e-05 -1.4245510101e-05 1348431872.6 4.3287102017e-05 -4.306435585e-05
          -1348431872.6 -2.3409724236e-05 -4.4629035983e-05 -2.9802322388e-08 -5.8740377426e-05 -4.2387953727e-05
          1348431872.6 -4.3153762817e-05 -2.44638311e-05 -1348431872.6 7.374829147e-05 4.93330881e-05
          3.4511089325e-05 5.8923382312e-05 5.8685429394e-05 1348431872.6 7.3951494414e-05 7.3970586527e-05
        </DataArray>
        <DataArray type="Int32" Name="ID" format="ascii" RangeMin="0" RangeMax="11">
          0 1 2 3 4 5
          6 7 8 9 10 11
        </DataArray>
        <DataArray type="Int32" Name="Proc_Num" format="ascii" RangeMin="0" RangeMax="0">
          0 0 0 0 0 0
          0 0 0 0 0 0
        </DataArray>
        <DataArray type="Float64" Name="Velocity" NumberOfComponents="3" format="ascii" RangeMin="0" RangeMax="2013.4822336">
          0 0 0 -1000 -194.47346562 -194.47346562
          -2000 -4.1418403307e-11 1.5918979609e-11 0 164.48511327 0
          -1000 358.95857889 -194.47346562 -2000 164.48511327 -8.851114013e-12
          0 0 164.48511327 -1000 -194.47346562 358.95857889
          -2000 6.0191611297e-11 164.48511327 0 164.48511327 164.48511327
          -1000 358.95857889 358.95857889 -2000 164.48511327 164.48511327
        </DataArray>
        <DataArray type="Float64" Name="Weighted_Volume" format="ascii" RangeMin="12" RangeMax="20">
          12 20 12 12 20 12
          12 20 12 12 20 12
        </DataArray>
      </PointData>
      <CellData>
      </CellData>
      <Points>
        <DataArray type="Float64" Name="Points" NumberOfComponents="3" format="ascii" RangeMin="0.70710678119" RangeMax="1.2247448714">
          -1 -0.5 -0.5 0 -0.5 -0.5
          1 -0.5 -0.5 -1 0.5 -0.5
          0 0.5 -0.5 1 0.5 -0.5
          -1 -0.5 0.5 0 -0.5 0.5
          1 -0.5 0.5 -1 0.5 0.5
          0 0.5 0.5 1 0.5 0.5
        </DataArray>
      </Points>
      <Cells>
        <DataArray type="Int64" Name="connectivity" format="ascii" RangeMin="0" RangeMax="11">
          0 1 2 3 4 5
          6 7 8 9 10 11
        </DataArray>
        <DataArray type="Int64" Name="offsets" format="ascii" RangeMin="1" RangeMax="12">
          1 2 3 4 5 6
          7 8 9 10 11 12
        </DataArray>
        <DataArray type="UInt8" Name="types" format="ascii" RangeMin="1" RangeMax="1">
          1 1 1 1 1 1
          1 1 1 1 1 1
        </DataArray>
      </Cells>
    </Piece>
  </UnstructuredGrid>
</VTKFile>
