<?xml version="1.0"?>
<VTKFile type="UnstructuredGrid" version="0.1" byte_order="LittleEndian" compressor="vtkZLibDataCompressor">
  <UnstructuredGrid>
    <Piece NumberOfPoints="12" NumberOfCells="12">
      <PointData>
        <DataArray type="Float64" Name="Dilatation" format="ascii" RangeMin="-0.022104315829" RangeMax="-0.019563584386">
          -0.022104315829 -0.019563584386 -0.022104315829 -0.022104315829 -0.019563584386 -0.022104315829
          -0.022104315829 -0.019563584386 -0.022104315829 -0.022104315829 -0.019563584386 -0.022104315829
        </DataArray>
        <DataArray type="Float64" Name="Displacement" NumberOfComponents="3" format="ascii" RangeMin="0" RangeMax="0.095585335359">
          0 0 0 -0.0475 -0.0095355679805 -0.0095355679805
          -0.095 3.2226293757e-17 -1.1249354219e-16 0 0.0074684782798 0
          -0.0475 0.01700404626 -0.0095355679805 -0.095 0.0074684782798 9.0383225332e-17
          0 0 0.0074684782798 -0.0475 -0.0095355679805 0.01700404626
          -0.095 -2.883585918e-16 0.0074684782798 0 0.0074684782798 0.0074684782798
          -0.0475 0.01700404626 0.01700404626 -0.095 0.0074684782798 0.0074684782798
        </DataArray>
        <DataArray type="Float64" Name="Force_Density" NumberOfComponents="3" format="ascii" RangeMin="3.5709602949e-05" RangeMax="12428831960">
          -12428831960 -3.3974647522e-06 -2.7984380722e-05 4.0471553802e-05 -5.6266784668e-05 -3.3855438232e-05
          12428831960 -3.8146972656e-06 -2.8729438782e-05 -12428831960 6.7269429564e-06 -8.3446502686e-06
          3.8862228394e-05 -2.659112215e-05 1.4305114746e-06 12428831960 -4.723154545e-05 4.780292511e-05
          -12428831960 -7.0333480835e-06 -1.5030615032e-05 9.5367431641e-07 2.7179718018e-05 2.3141503334e-05
          12428831960 4.6253204346e-05 -4.76908648e-05 -12428831960 3.4868717194e-06 2.8874725103e-05
          6.3896179199e-05 5.7280063629e-05 5.6721270084e-05 12428831960 3.3006072044e-06 3.9115548134e-06
        </DataArray>
        <DataArray type="Int32" Name="ID" format="ascii" RangeMin="0" RangeMax="11">
          0 1 2 3 4 5
          6 7 8 9 10 11
        </DataArray>
        <DataArray type="Int32" Name="Proc_Num" format="ascii" RangeMin="0" RangeMax="0">
          0 0 0 0 0 0
          0 0 0 0 0 0
        </DataArray>
        <DataArray type="Float64" Name="Velocity" NumberOfComponents="3" format="ascii" RangeMin="0" RangeMax="0">
          0 0 0 0 0 0
          0 0 0 0 0 0
          0 0 0 0 0 0
          0 0 0 0 0 0
          0 0 0 0 0 0
          0 0 0 0 0 0
        </DataArray>
        <DataArray type="Float64" Name="Weighted_Volume" format="ascii" RangeMin="12" RangeMax="20">
          12 20 12 12 20 12
          12 20 12 12 20 12
        </DataArray>
      </PointData>
      <CellData>
      </CellData>
      <Points>
        <DataArray type="Float64" Name="Points" NumberOfComponents="3" format="ascii" RangeMin="0.70710678119" RangeMax="1.2247448714">
          -1 -0.5 -0.5 0 -0.5 -0.5
          1 -0.5 -0.5 -1 0.5 -0.5
          0 0.5 -0.5 1 0.5 -0.5
          -1 -0.5 0.5 0 -0.5 0.5
          1 -0.5 0.5 -1 0.5 0.5
          0 0.5 0.5 1 0.5 0.5
        </DataArray>
      </Points>
      <Cells>
        <DataArray type="Int64" Name="connectivity" format="ascii" RangeMin="0" RangeMax="11">
          0 1 2 3 4 5
          6 7 8 9 10 11
        </DataArray>
        <DataArray type="Int64" Name="offsets" format="ascii" RangeMin="1" RangeMax="12">
          1 2 3 4 5 6
          7 8 9 10 11 12
        </DataArray>
        <DataArray type="UInt8" Name="types" format="ascii" RangeMin="1" RangeMax="1">
          1 1 1 1 1 1
          1 1 1 1 1 1
        </DataArray>
      </Cells>
    </Piece>
  </UnstructuredGrid>
</VTKFile>
