<?xml version="1.0"?>
<VTKFile type="UnstructuredGrid" version="0.1" byte_order="LittleEndian" compressor="vtkZLibDataCompressor">
  <UnstructuredGrid>
    <Piece NumberOfPoints="12" NumberOfCells="12">
      <PointData>
        <DataArray type="Float64" Name="Dilatation" format="ascii" RangeMin="-0.022104315829" RangeMax="-0.019563584386">
          -0.022104315829 -0.019563584386 -0.022104315829 -0.022104315829 -0.019563584386 -0.022104315829
          -0.022104315829 -0.019563584386 -0.022104315829 -0.022104315829 -0.019563584386 -0.022104315829
        </DataArray>
        <DataArray type="Float64" Name="Displacement" NumberOfComponents="3" format="ascii" RangeMin="0" RangeMax="0.095585335359">
          0 0 0 -0.0475 -0.0095355679805 -0.0095355679805
          -0.095 -4.411645518e-16 1.1689386749e-16 0 0.0074684782798 0
          -0.0475 0.01700404626 -0.0095355679805 -0.095 0.0074684782798 -1.7232081458e-16
          0 0 0.0074684782798 -0.0475 -0.0095355679805 0.01700404626
          -0.095 -3.135122583e-16 0.0074684782798 0 0.0074684782798 0.0074684782798
          -0.0475 0.01700404626 0.01700404626 -0.095 0.0074684782798 0.0074684782798
        </DataArray>
        <DataArray type="Float64" Name="Force_Density" NumberOfComponents="3" format="ascii" RangeMin="0.00010948534871" RangeMax="12428831960">
          -12428831960 -5.0783157349e-05 -3.0636787415e-05 3.7729740143e-05 -1.4245510101e-05 -0.00010919570923
          12428831960 -4.8875808716e-06 -4.6491622925e-06 -12428831960 6.8871304393e-06 -2.920627594e-05
          4.8637390137e-05 7.9840421677e-05 -5.6982040405e-05 12428831960 -1.760169506e-05 -9.4175338745e-06
          -12428831960 -1.9073486328e-06 5.3034164011e-05 5.3405761719e-05 -8.5830688477e-05 6.4142048359e-05
          12428831960 -5.9604644775e-06 2.8628554343e-05 -12428831960 -1.3504177332e-05 -1.685321331e-05
          -3.5285949707e-05 8.100271225e-05 0.00010742247105 12428831960 2.7507543564e-05 3.5762786865e-06
        </DataArray>
        <DataArray type="Int32" Name="ID" format="ascii" RangeMin="0" RangeMax="11">
          0 1 2 3 4 5
          6 7 8 9 10 11
        </DataArray>
        <DataArray type="Int32" Name="Proc_Num" format="ascii" RangeMin="0" RangeMax="0">
          0 0 0 0 0 0
          0 0 0 0 0 0
        </DataArray>
        <DataArray type="Float64" Name="Velocity" NumberOfComponents="3" format="ascii" RangeMin="0" RangeMax="2011.0104403">
          0 0 0 -1000 -208.17192442 -208.17192442
          -2000 -2.4078465084e-10 5.9224700247e-11 0 148.59843687 0
          -1000 356.7703613 -208.17192442 -2000 148.59843687 -1.2729928294e-10
          0 0 148.59843687 -1000 -208.17192442 356.7703613
          -2000 -1.0449577615e-10 148.59843687 0 148.59843687 148.59843687
          -1000 356.7703613 356.7703613 -2000 148.59843687 148.59843687
        </DataArray>
        <DataArray type="Float64" Name="Weighted_Volume" format="ascii" RangeMin="12" RangeMax="20">
          12 20 12 12 20 12
          12 20 12 12 20 12
        </DataArray>
      </PointData>
      <CellData>
      </CellData>
      <Points>
        <DataArray type="Float64" Name="Points" NumberOfComponents="3" format="ascii" RangeMin="0.70710678119" RangeMax="1.2247448714">
          -1 -0.5 -0.5 0 -0.5 -0.5
          1 -0.5 -0.5 -1 0.5 -0.5
          0 0.5 -0.5 1 0.5 -0.5
          -1 -0.5 0.5 0 -0.5 0.5
          1 -0.5 0.5 -1 0.5 0.5
          0 0.5 0.5 1 0.5 0.5
        </DataArray>
      </Points>
      <Cells>
        <DataArray type="Int64" Name="connectivity" format="ascii" RangeMin="0" RangeMax="11">
          0 1 2 3 4 5
          6 7 8 9 10 11
        </DataArray>
        <DataArray type="Int64" Name="offsets" format="ascii" RangeMin="1" RangeMax="12">
          1 2 3 4 5 6
          7 8 9 10 11 12
        </DataArray>
        <DataArray type="UInt8" Name="types" format="ascii" RangeMin="1" RangeMax="1">
          1 1 1 1 1 1
          1 1 1 1 1 1
        </DataArray>
      </Cells>
    </Piece>
  </UnstructuredGrid>
</VTKFile>
