<?xml version="1.0"?>
<VTKFile type="UnstructuredGrid" version="0.1" byte_order="LittleEndian" compressor="vtkZLibDataCompressor">
  <UnstructuredGrid>
    <Piece NumberOfPoints="12" NumberOfCells="12">
      <PointData>
        <DataArray type="Float64" Name="Displacement" NumberOfComponents="3" format="ascii" RangeMin="0" RangeMax="0.022480782715">
          0 0 0 -0.01 0.0025176885034 0.0025176885034
          -0.02 -1.0388492042e-16 3.8461881617e-17 0 0.007258980351 0
          -0.01 0.0047412918476 0.0025176885034 -0.02 0.007258980351 -2.2917436684e-16
          0 0 0.007258980351 -0.01 0.0025176885034 0.0047412918476
          -0.02 1.2913886456e-16 0.007258980351 0 0.007258980351 0.007258980351
          -0.01 0.0047412918476 0.0047412918476 -0.02 0.007258980351 0.007258980351
        </DataArray>
        <DataArray type="Float64" Name="Velocity" NumberOfComponents="3" format="ascii" RangeMin="0" RangeMax="0">
          0 0 0 0 0 0
          0 0 0 0 0 0
          0 0 0 0 0 0
          0 0 0 0 0 0
          0 0 0 0 0 0
          0 0 0 0 0 0
        </DataArray>
        <DataArray type="Float64" Name="Force Density" NumberOfComponents="3" format="ascii" RangeMin="3.6771385561e-05" RangeMax="5431568974.2">
          -5431568974.2 6.377696991e-06 2.1427869797e-05 -5.404278636e-05 -1.9521452487e-05 6.2892213464e-06
          5431568974.2 3.5881996155e-05 6.0498714447e-06 -5431568974.2 -3.5559525713e-05 6.5863132477e-06
          3.5956501961e-05 4.605128197e-06 6.1690807343e-06 5431568974.2 3.2915950489e-05 1.1205673218e-05
          -5431568974.2 8.8512897491e-06 6.1719876337e-06 -3.9041042328e-05 6.377696991e-06 -2.1306157578e-05
          5431568974.2 -6.0796737671e-06 5.7627243819e-06 -5431568974.2 -6.3521099818e-06 -2.0589165095e-05
          -5.9604644775e-08 -4.5671593398e-05 -4.5681372285e-05 5431568974.2 1.8121674657e-05 1.7848680727e-05
        </DataArray>
        <DataArray type="Int32" Name="Id" format="ascii" RangeMin="0" RangeMax="11">
          0 1 2 3 4 5
          6 7 8 9 10 11
        </DataArray>
        <DataArray type="Int32" Name="Proc_Num" format="ascii" RangeMin="0" RangeMax="0">
          0 0 0 0 0 0
          0 0 0 0 0 0
        </DataArray>
        <DataArray type="Float64" Name="Damage" format="ascii" RangeMin="0" RangeMax="0">
          0 0 0 0 0 0
          0 0 0 0 0 0
        </DataArray>
        <DataArray type="Float64" Name="Dilatation" format="ascii" RangeMin="-0.011468395887" RangeMax="-0.0049180449681">
          -0.011468395887 -0.0049180449681 -0.011468395887 -0.011468395887 -0.0049180449681 -0.011468395887
          -0.011468395887 -0.0049180449681 -0.011468395887 -0.011468395887 -0.0049180449681 -0.011468395887
        </DataArray>
        <DataArray type="Float64" Name="Weighted_Volume" format="ascii" RangeMin="20" RangeMax="32">
          32 20 32 32 20 32
          32 20 32 32 20 32
        </DataArray>
      </PointData>
      <CellData>
      </CellData>
      <Points>
        <DataArray type="Float64" Name="Points" NumberOfComponents="3" format="ascii" RangeMin="0.70710678119" RangeMax="1.2247448714">
          -1 -0.5 -0.5 0 -0.5 -0.5
          1 -0.5 -0.5 -1 0.5 -0.5
          0 0.5 -0.5 1 0.5 -0.5
          -1 -0.5 0.5 0 -0.5 0.5
          1 -0.5 0.5 -1 0.5 0.5
          0 0.5 0.5 1 0.5 0.5
        </DataArray>
      </Points>
      <Cells>
        <DataArray type="Int32" Name="connectivity" format="ascii" RangeMin="0" RangeMax="11">
          0 1 2 3 4 5
          6 7 8 9 10 11
        </DataArray>
        <DataArray type="Int32" Name="offsets" format="ascii" RangeMin="1" RangeMax="12">
          1 2 3 4 5 6
          7 8 9 10 11 12
        </DataArray>
        <DataArray type="UInt8" Name="types" format="ascii" RangeMin="1" RangeMax="1">
          1 1 1 1 1 1
          1 1 1 1 1 1
        </DataArray>
      </Cells>
    </Piece>
  </UnstructuredGrid>
</VTKFile>
