<?xml version="1.0"?>
<VTKFile type="UnstructuredGrid" version="0.1" byte_order="LittleEndian" compressor="vtkZLibDataCompressor">
  <UnstructuredGrid>
    <Piece NumberOfPoints="12" NumberOfCells="12">
      <PointData>
        <DataArray type="Float64" Name="Dilatation" format="ascii" RangeMin="-0.018673259798" RangeMax="-0.016638752786">
          -0.018673259798 -0.016638752786 -0.018673259798 -0.018673259798 -0.016638752786 -0.018673259798
          -0.018673259798 -0.016638752786 -0.018673259798 -0.018673259798 -0.016638752786 -0.018673259798
        </DataArray>
        <DataArray type="Float64" Name="Displacement" NumberOfComponents="3" format="ascii" RangeMin="0" RangeMax="0.080501878932">
          0 0 0 -0.04 -0.0079808113163 -0.0079808113163
          -0.08 -2.6964903944e-16 -4.4422934325e-17 0 0.0063463576806 0
          -0.04 0.014327168997 -0.0079808113163 -0.08 0.0063463576806 -1.2224798427e-16
          0 0 0.0063463576806 -0.04 -0.0079808113163 0.014327168997
          -0.08 -1.6555598342e-16 0.0063463576806 0 0.0063463576806 0.0063463576806
          -0.04 0.014327168997 0.014327168997 -0.08 0.0063463576806 0.0063463576806
        </DataArray>
        <DataArray type="Float64" Name="Force_Density" NumberOfComponents="3" format="ascii" RangeMin="3.878765103e-05" RangeMax="10523098473">
          -10523098473 -4.917383194e-05 -2.4646520615e-05 -9.5367431641e-07 -2.7239322662e-05 -2.7596950531e-05
          10523098473 6.6757202148e-05 2.4676322937e-05 -10523098473 5.692243576e-06 -2.9563903809e-05
          -1.6927719116e-05 1.4225021005e-05 -3.981590271e-05 10523098473 -3.9122998714e-05 -3.0517578125e-05
          -10523098473 -3.0040740967e-05 6.2352046371e-06 -4.1961669922e-05 -1.2397766113e-05 -1.0997056961e-05
          10523098473 -6.9141387939e-06 4.8621576819e-06 -10523098473 5.0477683544e-06 6.303191185e-06
          6.1511993408e-05 5.4869800806e-05 0.00010169669986 10523098473 1.8388032913e-05 1.9911676645e-05
        </DataArray>
        <DataArray type="Int32" Name="ID" format="ascii" RangeMin="0" RangeMax="11">
          0 1 2 3 4 5
          6 7 8 9 10 11
        </DataArray>
        <DataArray type="Int32" Name="Proc_Num" format="ascii" RangeMin="0" RangeMax="0">
          0 0 0 0 0 0
          0 0 0 0 0 0
        </DataArray>
        <DataArray type="Float64" Name="Velocity" NumberOfComponents="3" format="ascii" RangeMin="0" RangeMax="2011.4627512">
          0 0 0 -1000 -205.57746344 -205.57746344
          -2000 -1.3955148441e-10 5.0047779434e-12 0 151.62849263 0
          -1000 357.20595607 -205.57746344 -2000 151.62849263 -9.2703939489e-12
          0 0 151.62849263 -1000 -205.57746344 357.20595607
          -2000 -9.112942087e-11 151.62849263 0 151.62849263 151.62849263
          -1000 357.20595606 357.20595607 -2000 151.62849263 151.62849263
        </DataArray>
        <DataArray type="Float64" Name="Weighted_Volume" format="ascii" RangeMin="12" RangeMax="20">
          12 20 12 12 20 12
          12 20 12 12 20 12
        </DataArray>
      </PointData>
      <CellData>
      </CellData>
      <Points>
        <DataArray type="Float64" Name="Points" NumberOfComponents="3" format="ascii" RangeMin="0.70710678119" RangeMax="1.2247448714">
          -1 -0.5 -0.5 0 -0.5 -0.5
          1 -0.5 -0.5 -1 0.5 -0.5
          0 0.5 -0.5 1 0.5 -0.5
          -1 -0.5 0.5 0 -0.5 0.5
          1 -0.5 0.5 -1 0.5 0.5
          0 0.5 0.5 1 0.5 0.5
        </DataArray>
      </Points>
      <Cells>
        <DataArray type="Int64" Name="connectivity" format="ascii" RangeMin="0" RangeMax="11">
          0 1 2 3 4 5
          6 7 8 9 10 11
        </DataArray>
        <DataArray type="Int64" Name="offsets" format="ascii" RangeMin="1" RangeMax="12">
          1 2 3 4 5 6
          7 8 9 10 11 12
        </DataArray>
        <DataArray type="UInt8" Name="types" format="ascii" RangeMin="1" RangeMax="1">
          1 1 1 1 1 1
          1 1 1 1 1 1
        </DataArray>
      </Cells>
    </Piece>
  </UnstructuredGrid>
</VTKFile>
