<?xml version="1.0"?>
<VTKFile type="UnstructuredGrid" version="0.1" byte_order="LittleEndian" compressor="vtkZLibDataCompressor">
  <UnstructuredGrid>
    <Piece NumberOfPoints="12" NumberOfCells="12">
      <PointData>
        <DataArray type="Float64" Name="Dilatation" format="ascii" RangeMin="-0.020962962637" RangeMax="-0.018595578674">
          -0.020962962637 -0.018595578674 -0.020962962637 -0.020962962637 -0.018595578674 -0.020962962637
          -0.020962962637 -0.018595578674 -0.020962962637 -0.020962962637 -0.018595578674 -0.020962962637
        </DataArray>
        <DataArray type="Float64" Name="Displacement" NumberOfComponents="3" format="ascii" RangeMin="0" RangeMax="0.090557905852">
          0 0 0 -0.045 -0.0090151381694 -0.0090151381694
          -0.09 1.6079707531e-16 -3.1167883127e-17 0 0.0070969821876 0
          -0.045 0.016112120357 -0.0090151381694 -0.09 0.0070969821876 1.4592739277e-16
          0 0 0.0070969821876 -0.045 -0.0090151381694 0.016112120357
          -0.09 -5.2272817934e-17 0.0070969821876 0 0.0070969821876 0.0070969821876
          -0.045 0.016112120357 0.016112120357 -0.09 0.0070969821876 0.0070969821876
        </DataArray>
        <DataArray type="Float64" Name="Force_Density" NumberOfComponents="3" format="ascii" RangeMin="1.6751556424e-05" RangeMax="11795954488">
          -11795954488 -6.8843364716e-06 -6.5267086029e-06 -2.1457672119e-06 -1.2099742889e-05 -1.1384487152e-05
          11795954488 -3.0159950256e-05 -5.9604644775e-06 -11795954488 -2.4917535484e-05 2.384185791e-05
          -2.4795532227e-05 3.6977231503e-05 -1.2397766113e-05 11795954488 7.3473783813e-06 -4.8518180847e-05
          -11795954488 -1.9550323486e-05 -2.3043714464e-05 2.4795532227e-05 -3.6478042603e-05 1.0268762708e-05
          11795954488 -6.4373016357e-06 6.49123105e-06 -11795954488 7.3045492172e-05 6.6459178925e-06
          0 1.3418495655e-05 1.2017786503e-05 11795954488 5.9977173805e-06 4.8942863941e-05
        </DataArray>
        <DataArray type="Int32" Name="ID" format="ascii" RangeMin="0" RangeMax="11">
          0 1 2 3 4 5
          6 7 8 9 10 11
        </DataArray>
        <DataArray type="Int32" Name="Proc_Num" format="ascii" RangeMin="0" RangeMax="0">
          0 0 0 0 0 0
          0 0 0 0 0 0
        </DataArray>
        <DataArray type="Float64" Name="Velocity" NumberOfComponents="3" format="ascii" RangeMin="0" RangeMax="2011.1619124">
          0 0 0 -1000 -207.29774974 -207.29774974
          -2000 1.0935334933e-10 -3.8536790371e-11 0 149.61991482 0
          -1000 356.91766456 -207.29774974 -2000 149.61991482 1.1486305273e-10
          0 0 149.61991482 -1000 -207.29774974 356.91766456
          -2000 -5.7343022542e-11 149.61991482 0 149.61991482 149.61991482
          -1000 356.91766456 356.91766456 -2000 149.61991482 149.61991482
        </DataArray>
        <DataArray type="Float64" Name="Weighted_Volume" format="ascii" RangeMin="12" RangeMax="20">
          12 20 12 12 20 12
          12 20 12 12 20 12
        </DataArray>
      </PointData>
      <CellData>
      </CellData>
      <Points>
        <DataArray type="Float64" Name="Points" NumberOfComponents="3" format="ascii" RangeMin="0.70710678119" RangeMax="1.2247448714">
          -1 -0.5 -0.5 0 -0.5 -0.5
          1 -0.5 -0.5 -1 0.5 -0.5
          0 0.5 -0.5 1 0.5 -0.5
          -1 -0.5 0.5 0 -0.5 0.5
          1 -0.5 0.5 -1 0.5 0.5
          0 0.5 0.5 1 0.5 0.5
        </DataArray>
      </Points>
      <Cells>
        <DataArray type="Int64" Name="connectivity" format="ascii" RangeMin="0" RangeMax="11">
          0 1 2 3 4 5
          6 7 8 9 10 11
        </DataArray>
        <DataArray type="Int64" Name="offsets" format="ascii" RangeMin="1" RangeMax="12">
          1 2 3 4 5 6
          7 8 9 10 11 12
        </DataArray>
        <DataArray type="UInt8" Name="types" format="ascii" RangeMin="1" RangeMax="1">
          1 1 1 1 1 1
          1 1 1 1 1 1
        </DataArray>
      </Cells>
    </Piece>
  </UnstructuredGrid>
</VTKFile>
