<?xml version="1.0"?>
<VTKFile type="UnstructuredGrid" version="0.1" byte_order="LittleEndian" compressor="vtkZLibDataCompressor">
  <UnstructuredGrid>
    <Piece NumberOfPoints="12" NumberOfCells="12">
      <PointData>
        <DataArray type="Float64" Name="Dilatation" format="ascii" RangeMin="-0.0094179332782" RangeMax="-0.0085364776772">
          -0.0094179332782 -0.0085364776772 -0.0094179332782 -0.0094179332782 -0.0085364776772 -0.0094179332782
          -0.0094179332782 -0.0085364776772 -0.0094179332782 -0.0094179332782 -0.0085364776772 -0.0094179332782
        </DataArray>
        <DataArray type="Float64" Name="Displacement" NumberOfComponents="3" format="ascii" RangeMin="0" RangeMax="0.040262584227">
          0 0 0 -0.02 -0.003927304182 -0.003927304182
          -0.04 -2.3796874247e-16 1.5567855022e-16 0 0.0032462046028 0
          -0.02 0.0071735087848 -0.003927304182 -0.04 0.0032462046028 9.9936697527e-17
          0 0 0.0032462046028 -0.02 -0.003927304182 0.0071735087848
          -0.04 -2.2458188518e-16 0.0032462046028 0 0.0032462046028 0.0032462046028
          -0.02 0.0071735087848 0.0071735087848 -0.04 0.0032462046028 0.0032462046028
        </DataArray>
        <DataArray type="Float64" Name="Force_Density" NumberOfComponents="3" format="ascii" RangeMin="2.09485101e-05" RangeMax="5337103762.3">
          -5337103762.3 -4.2364001274e-05 -4.2825937271e-05 0 -1.4632940292e-05 -1.4990568161e-05
          5337103762.3 5.7101249695e-05 8.225440979e-06 -5337103762.3 4.2305327952e-05 2.4974346161e-05
          6.8068504333e-05 -3.5175122321e-05 -1.2040138245e-05 5337103762.3 4.1443489721e-05 -1.8060207367e-05
          -5337103762.3 -8.5651874542e-05 4.2281579226e-05 0 -3.2782554626e-05 3.3612828702e-05
          5337103762.3 6.9677829742e-05 2.261553891e-05 -5337103762.3 8.5450708866e-05 -1.0374933481e-06
          6.8664550781e-05 -5.3375959396e-05 -5.4497271776e-05 5337103762.3 -3.2260082662e-05 1.1808238924e-05
        </DataArray>
        <DataArray type="Int32" Name="ID" format="ascii" RangeMin="0" RangeMax="11">
          0 1 2 3 4 5
          6 7 8 9 10 11
        </DataArray>
        <DataArray type="Int32" Name="Proc_Num" format="ascii" RangeMin="0" RangeMax="0">
          0 0 0 0 0 0
          0 0 0 0 0 0
        </DataArray>
        <DataArray type="Float64" Name="Velocity" NumberOfComponents="3" format="ascii" RangeMin="0" RangeMax="0">
          0 0 0 0 0 0
          0 0 0 0 0 0
          0 0 0 0 0 0
          0 0 0 0 0 0
          0 0 0 0 0 0
          0 0 0 0 0 0
        </DataArray>
        <DataArray type="Float64" Name="Weighted_Volume" format="ascii" RangeMin="12" RangeMax="20">
          12 20 12 12 20 12
          12 20 12 12 20 12
        </DataArray>
      </PointData>
      <CellData>
      </CellData>
      <Points>
        <DataArray type="Float64" Name="Points" NumberOfComponents="3" format="ascii" RangeMin="0.70710678119" RangeMax="1.2247448714">
          -1 -0.5 -0.5 0 -0.5 -0.5
          1 -0.5 -0.5 -1 0.5 -0.5
          0 0.5 -0.5 1 0.5 -0.5
          -1 -0.5 0.5 0 -0.5 0.5
          1 -0.5 0.5 -1 0.5 0.5
          0 0.5 0.5 1 0.5 0.5
        </DataArray>
      </Points>
      <Cells>
        <DataArray type="Int64" Name="connectivity" format="ascii" RangeMin="0" RangeMax="11">
          0 1 2 3 4 5
          6 7 8 9 10 11
        </DataArray>
        <DataArray type="Int64" Name="offsets" format="ascii" RangeMin="1" RangeMax="12">
          1 2 3 4 5 6
          7 8 9 10 11 12
        </DataArray>
        <DataArray type="UInt8" Name="types" format="ascii" RangeMin="1" RangeMax="1">
          1 1 1 1 1 1
          1 1 1 1 1 1
        </DataArray>
      </Cells>
    </Piece>
  </UnstructuredGrid>
</VTKFile>
