<?xml version="1.0"?>
<VTKFile type="UnstructuredGrid" version="0.1" byte_order="LittleEndian" compressor="vtkZLibDataCompressor">
  <UnstructuredGrid>
    <Piece NumberOfPoints="12" NumberOfCells="12">
      <PointData>
        <DataArray type="Float64" Name="Dilatation" format="ascii" RangeMin="-0.011746588989" RangeMax="-0.010603032896">
          -0.011746588989 -0.010603032896 -0.011746588989 -0.011746588989 -0.010603032896 -0.011746588989
          -0.011746588989 -0.010603032896 -0.011746588989 -0.011746588989 -0.010603032896 -0.011746588989
        </DataArray>
        <DataArray type="Float64" Name="Displacement" NumberOfComponents="3" format="ascii" RangeMin="0" RangeMax="0.050324643909">
          0 0 0 -0.025 -0.0049284554466 -0.0049284554466
          -0.05 7.1808519327e-17 -1.3748083279e-16 0 0.0040354544094 0
          -0.025 0.0089639098559 -0.0049284554466 -0.05 0.0040354544094 3.6699502103e-17
          0 0 0.0040354544094 -0.025 -0.0049284554466 0.0089639098559
          -0.05 -4.2576109053e-18 0.0040354544094 0 0.0040354544094 0.0040354544094
          -0.025 0.0089639098559 0.0089639098559 -0.05 0.0040354544094 0.0040354544094
        </DataArray>
        <DataArray type="Float64" Name="Force_Density" NumberOfComponents="3" format="ascii" RangeMin="9.1773687654e-05" RangeMax="6647777849">
          -6647777849 -5.4717063904e-05 -1.072883606e-05 2.4348497391e-05 -8.4668397903e-05 -6.0230493546e-05
          6647777849 -3.1411647797e-05 1.1742115021e-05 -6647777849 0.00012955022976 -1.8775463104e-05
          3.4809112549e-05 6.0598831624e-05 -5.9485435486e-05 6647777849 1.150323078e-05 3.1769275665e-05
          -6647777849 -4.2140483856e-05 4.215259105e-05 2.0027160645e-05 -7.9989433289e-05 7.9374760389e-05
          6647777849 3.2126903534e-05 -3.1746257852e-05 -6647777849 1.1220574379e-05 -3.1455419958e-05
          -2.0027160645e-05 7.9449266195e-05 7.8793615103e-05 6647777849 -3.1378120184e-05 -3.1581148505e-05
        </DataArray>
        <DataArray type="Int32" Name="ID" format="ascii" RangeMin="0" RangeMax="11">
          0 1 2 3 4 5
          6 7 8 9 10 11
        </DataArray>
        <DataArray type="Int32" Name="Proc_Num" format="ascii" RangeMin="0" RangeMax="0">
          0 0 0 0 0 0
          0 0 0 0 0 0
        </DataArray>
        <DataArray type="Float64" Name="Velocity" NumberOfComponents="3" format="ascii" RangeMin="0" RangeMax="0">
          0 0 0 0 0 0
          0 0 0 0 0 0
          0 0 0 0 0 0
          0 0 0 0 0 0
          0 0 0 0 0 0
          0 0 0 0 0 0
        </DataArray>
        <DataArray type="Float64" Name="Weighted_Volume" format="ascii" RangeMin="12" RangeMax="20">
          12 20 12 12 20 12
          12 20 12 12 20 12
        </DataArray>
      </PointData>
      <CellData>
      </CellData>
      <Points>
        <DataArray type="Float64" Name="Points" NumberOfComponents="3" format="ascii" RangeMin="0.70710678119" RangeMax="1.2247448714">
          -1 -0.5 -0.5 0 -0.5 -0.5
          1 -0.5 -0.5 -1 0.5 -0.5
          0 0.5 -0.5 1 0.5 -0.5
          -1 -0.5 0.5 0 -0.5 0.5
          1 -0.5 0.5 -1 0.5 0.5
          0 0.5 0.5 1 0.5 0.5
        </DataArray>
      </Points>
      <Cells>
        <DataArray type="Int64" Name="connectivity" format="ascii" RangeMin="0" RangeMax="11">
          0 1 2 3 4 5
          6 7 8 9 10 11
        </DataArray>
        <DataArray type="Int64" Name="offsets" format="ascii" RangeMin="1" RangeMax="12">
          1 2 3 4 5 6
          7 8 9 10 11 12
        </DataArray>
        <DataArray type="UInt8" Name="types" format="ascii" RangeMin="1" RangeMax="1">
          1 1 1 1 1 1
          1 1 1 1 1 1
        </DataArray>
      </Cells>
    </Piece>
  </UnstructuredGrid>
</VTKFile>
