<?xml version="1.0"?>
<VTKFile type="UnstructuredGrid" version="0.1" byte_order="LittleEndian" compressor="vtkZLibDataCompressor">
  <UnstructuredGrid>
    <Piece NumberOfPoints="12" NumberOfCells="12">
      <PointData>
        <DataArray type="Float64" Name="Dilatation" format="ascii" RangeMin="-0.014065247574" RangeMax="-0.012642346089">
          -0.014065247574 -0.012642346089 -0.014065247574 -0.014065247574 -0.012642346089 -0.014065247574
          -0.014065247574 -0.012642346089 -0.014065247574 -0.014065247574 -0.012642346089 -0.014065247574
        </DataArray>
        <DataArray type="Float64" Name="Displacement" NumberOfComponents="3" format="ascii" RangeMin="0" RangeMax="0.060385226944">
          0 0 0 -0.03 -0.0059376456358 -0.0059376456358
          -0.06 -3.1685431202e-16 1.4863534389e-16 0 0.0048153729378 0
          -0.03 0.010753018574 -0.0059376456358 -0.06 0.0048153729378 -7.2988665643e-17
          0 0 0.0048153729378 -0.03 -0.0059376456358 0.010753018574
          -0.06 3.012108204e-17 0.0048153729378 0 0.0048153729378 0.0048153729378
          -0.03 0.010753018574 0.010753018574 -0.06 0.0048153729378 0.0048153729378
        </DataArray>
        <DataArray type="Float64" Name="Force_Density" NumberOfComponents="3" format="ascii" RangeMin="9.1003040845e-05" RangeMax="7949004676.9">
          -7949004676.9 2.6822090149e-06 2.6255846024e-05 -0.00014528632164 -6.3687562943e-05 -8.8036060333e-05
          7949004676.9 2.6345252991e-05 1.7285346985e-06 -7949004676.9 -5.015078932e-05 5.1736831665e-05
          -9.6559524536e-05 6.2525272369e-05 1.323223114e-05 7949004676.9 0.00012448784116 -7.4565410614e-05
          -7949004676.9 2.8014183044e-05 -2.6905909181e-06 -6.2942504883e-05 -1.4305114746e-05 6.414949894e-05
          7949004676.9 -9.9420547485e-05 9.9268834279e-05 -7949004676.9 -2.5562942028e-05 -5.2329152822e-05
          -8.1539154053e-05 -5.4351985455e-06 -7.6461583376e-05 7949004676.9 1.447275281e-05 3.7621706724e-05
        </DataArray>
        <DataArray type="Int32" Name="ID" format="ascii" RangeMin="0" RangeMax="11">
          0 1 2 3 4 5
          6 7 8 9 10 11
        </DataArray>
        <DataArray type="Int32" Name="Proc_Num" format="ascii" RangeMin="0" RangeMax="0">
          0 0 0 0 0 0
          0 0 0 0 0 0
        </DataArray>
        <DataArray type="Float64" Name="Velocity" NumberOfComponents="3" format="ascii" RangeMin="0" RangeMax="2012.0556335">
          0 0 0 -1000 -202.24405856 -202.24405856
          -2000 -6.9087164843e-11 9.5299934007e-11 0 155.5118519 0
          -1000 357.75591046 -202.24405856 -2000 155.5118519 5.4456746967e-11
          0 0 155.5118519 -1000 -202.24405856 357.75591046
          -2000 4.9509710851e-11 155.5118519 0 155.5118519 155.5118519
          -1000 357.75591046 357.75591046 -2000 155.5118519 155.5118519
        </DataArray>
        <DataArray type="Float64" Name="Weighted_Volume" format="ascii" RangeMin="12" RangeMax="20">
          12 20 12 12 20 12
          12 20 12 12 20 12
        </DataArray>
      </PointData>
      <CellData>
      </CellData>
      <Points>
        <DataArray type="Float64" Name="Points" NumberOfComponents="3" format="ascii" RangeMin="0.70710678119" RangeMax="1.2247448714">
          -1 -0.5 -0.5 0 -0.5 -0.5
          1 -0.5 -0.5 -1 0.5 -0.5
          0 0.5 -0.5 1 0.5 -0.5
          -1 -0.5 0.5 0 -0.5 0.5
          1 -0.5 0.5 -1 0.5 0.5
          0 0.5 0.5 1 0.5 0.5
        </DataArray>
      </Points>
      <Cells>
        <DataArray type="Int64" Name="connectivity" format="ascii" RangeMin="0" RangeMax="11">
          0 1 2 3 4 5
          6 7 8 9 10 11
        </DataArray>
        <DataArray type="Int64" Name="offsets" format="ascii" RangeMin="1" RangeMax="12">
          1 2 3 4 5 6
          7 8 9 10 11 12
        </DataArray>
        <DataArray type="UInt8" Name="types" format="ascii" RangeMin="1" RangeMax="1">
          1 1 1 1 1 1
          1 1 1 1 1 1
        </DataArray>
      </Cells>
    </Piece>
  </UnstructuredGrid>
</VTKFile>
