<?xml version="1.0"?>
<VTKFile type="UnstructuredGrid" version="0.1" byte_order="LittleEndian" compressor="vtkZLibDataCompressor">
  <UnstructuredGrid>
    <Piece NumberOfPoints="12" NumberOfCells="12">
      <PointData>
        <DataArray type="Float64" Name="Dilatation" format="ascii" RangeMin="-0.0070791117683" RangeMax="-0.0064427940314">
          -0.0070791117683 -0.0064427940314 -0.0070791117683 -0.0070791117683 -0.0064427940314 -0.0070791117683
          -0.0070791117683 -0.0064427940314 -0.0070791117683 -0.0070791117683 -0.0064427940314 -0.0070791117683
        </DataArray>
        <DataArray type="Float64" Name="Displacement" NumberOfComponents="3" format="ascii" RangeMin="0" RangeMax="0.030199068944">
          0 0 0 -0.015 -0.0029340328486 -0.0029340328486
          -0.03 2.2911746148e-16 -8.7126272563e-17 0 0.002447832213 0
          -0.015 0.0053818650616 -0.0029340328486 -0.03 0.002447832213 2.4629230724e-16
          0 0 0.002447832213 -0.015 -0.0029340328486 0.0053818650616
          -0.03 5.040376807e-17 0.002447832213 0 0.002447832213 0.002447832213
          -0.015 0.0053818650616 0.0053818650616 -0.03 0.002447832213 0.002447832213
        </DataArray>
        <DataArray type="Float64" Name="Force_Density" NumberOfComponents="3" format="ascii" RangeMin="4.1593572804e-05" RangeMax="4016986096.3">
          -4016986096.3 -3.2752752304e-05 -3.2812356949e-05 2.4005770683e-05 3.6165118217e-05 -1.3336539268e-05
          4016986096.3 -1.19805336e-05 -1.2814998627e-05 -4016986096.3 -7.3234550655e-06 7.3313713074e-06
          -1.7881393433e-07 -1.2791249901e-05 -3.9577484131e-05 4016986096.3 1.9269395294e-05 -4.3123960495e-05
          -4016986096.3 -1.2457370758e-05 1.2649572454e-05 -7.8558921814e-05 5.6266784668e-05 -6.2515027821e-06
          4016986096.3 -4.255771637e-05 4.3094403017e-05 -4016986096.3 -1.2267380953e-05 1.2896955013e-05
          5.3882598877e-05 7.4878334999e-06 5.9364363551e-05 4016986096.3 1.2924894691e-05 1.2706033885e-05
        </DataArray>
        <DataArray type="Int32" Name="ID" format="ascii" RangeMin="0" RangeMax="11">
          0 1 2 3 4 5
          6 7 8 9 10 11
        </DataArray>
        <DataArray type="Int32" Name="Proc_Num" format="ascii" RangeMin="0" RangeMax="0">
          0 0 0 0 0 0
          0 0 0 0 0 0
        </DataArray>
        <DataArray type="Float64" Name="Velocity" NumberOfComponents="3" format="ascii" RangeMin="0" RangeMax="0">
          0 0 0 0 0 0
          0 0 0 0 0 0
          0 0 0 0 0 0
          0 0 0 0 0 0
          0 0 0 0 0 0
          0 0 0 0 0 0
        </DataArray>
        <DataArray type="Float64" Name="Weighted_Volume" format="ascii" RangeMin="12" RangeMax="20">
          12 20 12 12 20 12
          12 20 12 12 20 12
        </DataArray>
      </PointData>
      <CellData>
      </CellData>
      <Points>
        <DataArray type="Float64" Name="Points" NumberOfComponents="3" format="ascii" RangeMin="0.70710678119" RangeMax="1.2247448714">
          -1 -0.5 -0.5 0 -0.5 -0.5
          1 -0.5 -0.5 -1 0.5 -0.5
          0 0.5 -0.5 1 0.5 -0.5
          -1 -0.5 0.5 0 -0.5 0.5
          1 -0.5 0.5 -1 0.5 0.5
          0 0.5 0.5 1 0.5 0.5
        </DataArray>
      </Points>
      <Cells>
        <DataArray type="Int64" Name="connectivity" format="ascii" RangeMin="0" RangeMax="11">
          0 1 2 3 4 5
          6 7 8 9 10 11
        </DataArray>
        <DataArray type="Int64" Name="offsets" format="ascii" RangeMin="1" RangeMax="12">
          1 2 3 4 5 6
          7 8 9 10 11 12
        </DataArray>
        <DataArray type="UInt8" Name="types" format="ascii" RangeMin="1" RangeMax="1">
          1 1 1 1 1 1
          1 1 1 1 1 1
        </DataArray>
      </Cells>
    </Piece>
  </UnstructuredGrid>
</VTKFile>
