<?xml version="1.0"?>
<VTKFile type="UnstructuredGrid" version="0.1" byte_order="LittleEndian" compressor="vtkZLibDataCompressor">
  <UnstructuredGrid>
    <Piece NumberOfPoints="12" NumberOfCells="12">
      <PointData>
        <DataArray type="Float64" Name="Dilatation" format="ascii" RangeMin="-0.0011864963615" RangeMax="-0.0010905779356">
          -0.0011864963615 -0.0010905779356 -0.0011864963615 -0.0011864963615 -0.0010905779356 -0.0011864963615
          -0.0011864963615 -0.0010905779356 -0.0011864963615 -0.0011864963615 -0.0010905779356 -0.0011864963615
        </DataArray>
        <DataArray type="Float64" Name="Displacement" NumberOfComponents="3" format="ascii" RangeMin="0" RangeMax="0.0050340506298">
          0 0 0 -0.0025 -0.00048434108217 -0.00048434108217
          -0.005 1.3477951477e-16 -9.0676762757e-17 0 0.0004133193339 0
          -0.0025 0.00089766041608 -0.00048434108217 -0.005 0.0004133193339 1.0281146876e-17
          0 0 0.0004133193339 -0.0025 -0.00048434108217 0.00089766041608
          -0.005 -1.5928641743e-16 0.0004133193339 0 0.0004133193339 0.0004133193339
          -0.0025 0.00089766041608 0.00089766041608 -0.005 0.0004133193339 0.0004133193339
        </DataArray>
        <DataArray type="Float64" Name="Force_Density" NumberOfComponents="3" format="ascii" RangeMin="4.8408132232e-05" RangeMax="675395295.67">
          -675395295.67 4.4906511903e-05 6.3721090555e-05 7.1935355663e-06 1.9304454327e-05 4.380568862e-05
          675395295.67 6.8202614784e-05 6.8165361881e-05 -675395295.67 -3.1068149838e-05 7.4289739132e-05
          -6.1675906181e-05 -0.00010385781934 5.3405761719e-05 675395295.67 -0.00011881591463 5.0999224186e-05
          -675395295.67 3.2283365726e-05 -0.00011874151096 6.1765313148e-05 0.00010380148888 -7.947000995e-05
          675395295.67 5.5529177189e-05 -9.8757784144e-05 -675395295.67 3.8358688471e-05 -4.8069516197e-05
          -3.7282705307e-05 -0.00010372466932 -2.897970262e-05 675395295.67 -4.9449299695e-06 1.9667655579e-05
        </DataArray>
        <DataArray type="Int32" Name="ID" format="ascii" RangeMin="0" RangeMax="11">
          0 1 2 3 4 5
          6 7 8 9 10 11
        </DataArray>
        <DataArray type="Int32" Name="Proc_Num" format="ascii" RangeMin="0" RangeMax="0">
          0 0 0 0 0 0
          0 0 0 0 0 0
        </DataArray>
        <DataArray type="Float64" Name="Velocity" NumberOfComponents="3" format="ascii" RangeMin="0" RangeMax="0">
          0 0 0 0 0 0
          0 0 0 0 0 0
          0 0 0 0 0 0
          0 0 0 0 0 0
          0 0 0 0 0 0
          0 0 0 0 0 0
        </DataArray>
        <DataArray type="Float64" Name="Weighted_Volume" format="ascii" RangeMin="12" RangeMax="20">
          12 20 12 12 20 12
          12 20 12 12 20 12
        </DataArray>
      </PointData>
      <CellData>
      </CellData>
      <Points>
        <DataArray type="Float64" Name="Points" NumberOfComponents="3" format="ascii" RangeMin="0.70710678119" RangeMax="1.2247448714">
          -1 -0.5 -0.5 0 -0.5 -0.5
          1 -0.5 -0.5 -1 0.5 -0.5
          0 0.5 -0.5 1 0.5 -0.5
          -1 -0.5 0.5 0 -0.5 0.5
          1 -0.5 0.5 -1 0.5 0.5
          0 0.5 0.5 1 0.5 0.5
        </DataArray>
      </Points>
      <Cells>
        <DataArray type="Int64" Name="connectivity" format="ascii" RangeMin="0" RangeMax="11">
          0 1 2 3 4 5
          6 7 8 9 10 11
        </DataArray>
        <DataArray type="Int64" Name="offsets" format="ascii" RangeMin="1" RangeMax="12">
          1 2 3 4 5 6
          7 8 9 10 11 12
        </DataArray>
        <DataArray type="UInt8" Name="types" format="ascii" RangeMin="1" RangeMax="1">
          1 1 1 1 1 1
          1 1 1 1 1 1
        </DataArray>
      </Cells>
    </Piece>
  </UnstructuredGrid>
</VTKFile>
