<?xml version="1.0"?>
<VTKFile type="UnstructuredGrid" version="0.1" byte_order="LittleEndian" compressor="vtkZLibDataCompressor">
  <UnstructuredGrid>
    <Piece NumberOfPoints="12" NumberOfCells="12">
      <PointData>
        <DataArray type="Float64" Name="Displacement" NumberOfComponents="3" format="ascii" RangeMin="0" RangeMax="0.01685631012">
          0 0 0 -0.0075 0.0018804808522 0.0018804808522
          -0.015 -6.4048083756e-17 9.9532245792e-17 0 0.0054376093485 0
          -0.0075 0.0035571284962 0.0018804808522 -0.015 0.0054376093485 1.3385292545e-16
          0 0 0.0054376093485 -0.0075 0.0018804808522 0.0035571284962
          -0.015 8.7520318707e-17 0.0054376093485 0 0.0054376093485 0.0054376093485
          -0.0075 0.0035571284962 0.0035571284962 -0.015 0.0054376093485 0.0054376093485
        </DataArray>
        <DataArray type="Float64" Name="Velocity" NumberOfComponents="3" format="ascii" RangeMin="0" RangeMax="0">
          0 0 0 0 0 0
          0 0 0 0 0 0
          0 0 0 0 0 0
          0 0 0 0 0 0
          0 0 0 0 0 0
          0 0 0 0 0 0
        </DataArray>
        <DataArray type="Float64" Name="Force Density" NumberOfComponents="3" format="ascii" RangeMin="1.0832045152e-05" RangeMax="4080670369.2">
          -4080670369.2 7.6293945312e-06 7.4058771133e-06 1.6540288925e-06 7.463619113e-06 7.6740980148e-06
          4080670369.2 1.8894672394e-05 1.8894672394e-05 -4080670369.2 4.5038960917e-06 -4.768371582e-06
          -1.6093254089e-06 1.0932155419e-05 -1.0937452316e-05 4080670369.2 1.6287947552e-05 -1.6063451767e-05
          -4080670369.2 7.5101852417e-06 -7.560166579e-06 5.9604644775e-08 -2.3111701012e-05 2.3148488253e-05
          4080670369.2 -1.6152858734e-05 1.6195545083e-05 -4080670369.2 4.5342031441e-06 4.5445049182e-06
          1.049041748e-05 -1.9593047909e-05 -1.9562605303e-05 4080670369.2 -1.8857128453e-05 -1.8999329768e-05
        </DataArray>
        <DataArray type="Int32" Name="Id" format="ascii" RangeMin="0" RangeMax="11">
          0 1 2 3 4 5
          6 7 8 9 10 11
        </DataArray>
        <DataArray type="Int32" Name="Proc_Num" format="ascii" RangeMin="0" RangeMax="0">
          0 0 0 0 0 0
          0 0 0 0 0 0
        </DataArray>
        <DataArray type="Float64" Name="Damage" format="ascii" RangeMin="0" RangeMax="0">
          0 0 0 0 0 0
          0 0 0 0 0 0
        </DataArray>
        <DataArray type="Float64" Name="Dilatation" format="ascii" RangeMin="-0.0086170300671" RangeMax="-0.0036927228033">
          -0.0086170300671 -0.0036927228033 -0.0086170300671 -0.0086170300671 -0.0036927228033 -0.0086170300671
          -0.0086170300671 -0.0036927228033 -0.0086170300671 -0.0086170300671 -0.0036927228033 -0.0086170300671
        </DataArray>
        <DataArray type="Float64" Name="Weighted_Volume" format="ascii" RangeMin="20" RangeMax="32">
          32 20 32 32 20 32
          32 20 32 32 20 32
        </DataArray>
      </PointData>
      <CellData>
      </CellData>
      <Points>
        <DataArray type="Float64" Name="Points" NumberOfComponents="3" format="ascii" RangeMin="0.70710678119" RangeMax="1.2247448714">
          -1 -0.5 -0.5 0 -0.5 -0.5
          1 -0.5 -0.5 -1 0.5 -0.5
          0 0.5 -0.5 1 0.5 -0.5
          -1 -0.5 0.5 0 -0.5 0.5
          1 -0.5 0.5 -1 0.5 0.5
          0 0.5 0.5 1 0.5 0.5
        </DataArray>
      </Points>
      <Cells>
        <DataArray type="Int32" Name="connectivity" format="ascii" RangeMin="0" RangeMax="11">
          0 1 2 3 4 5
          6 7 8 9 10 11
        </DataArray>
        <DataArray type="Int32" Name="offsets" format="ascii" RangeMin="1" RangeMax="12">
          1 2 3 4 5 6
          7 8 9 10 11 12
        </DataArray>
        <DataArray type="UInt8" Name="types" format="ascii" RangeMin="1" RangeMax="1">
          1 1 1 1 1 1
          1 1 1 1 1 1
        </DataArray>
      </Cells>
    </Piece>
  </UnstructuredGrid>
</VTKFile>
