<?xml version="1.0"?>
<VTKFile type="UnstructuredGrid" version="0.1" byte_order="LittleEndian" compressor="vtkZLibDataCompressor">
  <UnstructuredGrid>
    <Piece NumberOfPoints="12" NumberOfCells="12">
      <PointData>
        <DataArray type="Float64" Name="Dilatation" format="ascii" RangeMin="-0.0082498037" RangeMax="-0.0074930201004">
          -0.0082498037 -0.0074930201004 -0.0082498037 -0.0082498037 -0.0074930201004 -0.0082498037
          -0.0082498037 -0.0074930201004 -0.0082498037 -0.0082498037 -0.0074930201004 -0.0082498037
        </DataArray>
        <DataArray type="Float64" Name="Displacement" NumberOfComponents="3" format="ascii" RangeMin="0" RangeMax="0.03523100722">
          0 0 0 -0.0175 -0.0034296932159 -0.0034296932159
          -0.035 -1.3479011441e-17 -7.2332338108e-17 0 0.0028481458656 0
          -0.0175 0.0062778390815 -0.0034296932159 -0.035 0.0028481458656 -2.1113571802e-16
          0 0 0.0028481458656 -0.0175 -0.0034296932159 0.0062778390815
          -0.035 4.7216936347e-17 0.0028481458656 0 0.0028481458656 0.0028481458656
          -0.0175 0.0062778390815 0.0062778390815 -0.035 0.0028481458656 0.0028481458656
        </DataArray>
        <DataArray type="Float64" Name="Force_Density" NumberOfComponents="3" format="ascii" RangeMin="7.324760328e-05" RangeMax="4678225170.5">
          -4678225170.5 -7.8484416008e-05 -6.0185790062e-05 6.1124563217e-05 3.8713216782e-05 -1.1414289474e-05
          4678225170.5 -7.289648056e-05 -4.8279762268e-05 -4678225170.5 4.8377783969e-05 -7.2777271271e-05
          -0.0001095533371 1.0384712368e-05 -1.1682510376e-05 4678225170.5 -2.7061663834e-05 2.6941299438e-05
          -4678225170.5 -5.3226947784e-05 -1.4886027202e-05 8.5294246674e-05 -3.6239624023e-05 3.6126002669e-05
          4678225170.5 -1.7821788788e-05 1.7591035525e-05 -4678225170.5 0.00010389043018 5.42816706e-05
          8.9645385742e-05 5.6025572121e-05 3.1726434827e-05 4678225170.5 2.8311274946e-05 5.2656047046e-05
        </DataArray>
        <DataArray type="Int32" Name="ID" format="ascii" RangeMin="0" RangeMax="11">
          0 1 2 3 4 5
          6 7 8 9 10 11
        </DataArray>
        <DataArray type="Int32" Name="Proc_Num" format="ascii" RangeMin="0" RangeMax="0">
          0 0 0 0 0 0
          0 0 0 0 0 0
        </DataArray>
        <DataArray type="Float64" Name="Velocity" NumberOfComponents="3" format="ascii" RangeMin="0" RangeMax="2012.7792543">
          0 0 0 -1000 -198.2641469 -198.2641469
          -2000 -3.3777570854e-12 -8.3019614846e-12 0 160.12546105 0
          -1000 358.38960795 -198.2641469 -2000 160.12546105 -1.2393412557e-10
          0 0 160.12546105 -1000 -198.2641469 358.38960795
          -2000 3.8713241864e-11 160.12546105 0 160.12546105 160.12546105
          -1000 358.38960795 358.38960795 -2000 160.12546105 160.12546105
        </DataArray>
        <DataArray type="Float64" Name="Weighted_Volume" format="ascii" RangeMin="12" RangeMax="20">
          12 20 12 12 20 12
          12 20 12 12 20 12
        </DataArray>
      </PointData>
      <CellData>
      </CellData>
      <Points>
        <DataArray type="Float64" Name="Points" NumberOfComponents="3" format="ascii" RangeMin="0.70710678119" RangeMax="1.2247448714">
          -1 -0.5 -0.5 0 -0.5 -0.5
          1 -0.5 -0.5 -1 0.5 -0.5
          0 0.5 -0.5 1 0.5 -0.5
          -1 -0.5 0.5 0 -0.5 0.5
          1 -0.5 0.5 -1 0.5 0.5
          0 0.5 0.5 1 0.5 0.5
        </DataArray>
      </Points>
      <Cells>
        <DataArray type="Int64" Name="connectivity" format="ascii" RangeMin="0" RangeMax="11">
          0 1 2 3 4 5
          6 7 8 9 10 11
        </DataArray>
        <DataArray type="Int64" Name="offsets" format="ascii" RangeMin="1" RangeMax="12">
          1 2 3 4 5 6
          7 8 9 10 11 12
        </DataArray>
        <DataArray type="UInt8" Name="types" format="ascii" RangeMin="1" RangeMax="1">
          1 1 1 1 1 1
          1 1 1 1 1 1
        </DataArray>
      </Cells>
    </Piece>
  </UnstructuredGrid>
</VTKFile>
