<?xml version="1.0"?>
<VTKFile type="UnstructuredGrid" version="0.1" byte_order="LittleEndian" compressor="vtkZLibDataCompressor">
  <UnstructuredGrid>
    <Piece NumberOfPoints="12" NumberOfCells="12">
      <PointData>
        <DataArray type="Float64" Name="Dilatation" format="ascii" RangeMin="-0.019819284748" RangeMax="-0.017620628583">
          -0.019819284748 -0.017620628583 -0.019819284748 -0.019819284748 -0.017620628583 -0.019819284748
          -0.019819284748 -0.017620628583 -0.019819284748 -0.019819284748 -0.017620628583 -0.019819284748
        </DataArray>
        <DataArray type="Float64" Name="Displacement" NumberOfComponents="3" format="ascii" RangeMin="0" RangeMax="0.085530086169">
          0 0 0 -0.0425 -0.0084968937951 -0.0084968937951
          -0.085 -1.1258629802e-16 6.5174092799e-17 0 0.0067229324006 0
          -0.0425 0.015219826196 -0.0084968937951 -0.085 0.0067229324006 -1.4123023905e-16
          0 0 0.0067229324006 -0.0425 -0.0084968937951 0.015219826196
          -0.085 9.1084738422e-17 0.0067229324006 0 0.0067229324006 0.0067229324006
          -0.0425 0.015219826196 0.015219826196 -0.085 0.0067229324006 0.0067229324006
        </DataArray>
        <DataArray type="Float64" Name="Force_Density" NumberOfComponents="3" format="ascii" RangeMin="6.4931183674e-05" RangeMax="11160709701">
          -11160709701 -4.9650669098e-05 1.8179416656e-05 -6.490945816e-05 -1.4901161194e-06 -7.7486038208e-07
          11160709701 5.9485435486e-05 -7.7366828918e-05 -11160709701 7.6061114669e-06 -7.688999176e-05
          -5.578994751e-05 -5.8524310589e-06 -4.1723251343e-05 11160709701 -9.745139279e-06 1.6331672668e-05
          -11160709701 8.8214874268e-06 -3.5476870835e-05 -6.4611434937e-05 2.384185791e-05 -2.1608546376e-05
          11160709701 -4.8756599426e-05 0.00011626294052 -11160709701 -3.4715980291e-05 5.0708651543e-05
          0.00012826919556 4.0546059608e-05 1.8931925297e-05 11160709701 9.9390745163e-06 3.3035874367e-05
        </DataArray>
        <DataArray type="Int32" Name="ID" format="ascii" RangeMin="0" RangeMax="11">
          0 1 2 3 4 5
          6 7 8 9 10 11
        </DataArray>
        <DataArray type="Int32" Name="Proc_Num" format="ascii" RangeMin="0" RangeMax="0">
          0 0 0 0 0 0
          0 0 0 0 0 0
        </DataArray>
        <DataArray type="Float64" Name="Velocity" NumberOfComponents="3" format="ascii" RangeMin="0" RangeMax="2011.3126874">
          0 0 0 -1000 -206.4329915 -206.4329915
          -2000 6.2825096569e-11 4.383881085e-11 0 150.62988799 0
          -1000 357.06287948 -206.4329915 -2000 150.62988799 -7.592901909e-12
          0 0 150.62988799 -1000 -206.4329915 357.06287948
          -2000 1.0265628874e-10 150.62988799 0 150.62988799 150.62988799
          -1000 357.06287948 357.06287948 -2000 150.62988799 150.62988799
        </DataArray>
        <DataArray type="Float64" Name="Weighted_Volume" format="ascii" RangeMin="12" RangeMax="20">
          12 20 12 12 20 12
          12 20 12 12 20 12
        </DataArray>
      </PointData>
      <CellData>
      </CellData>
      <Points>
        <DataArray type="Float64" Name="Points" NumberOfComponents="3" format="ascii" RangeMin="0.70710678119" RangeMax="1.2247448714">
          -1 -0.5 -0.5 0 -0.5 -0.5
          1 -0.5 -0.5 -1 0.5 -0.5
          0 0.5 -0.5 1 0.5 -0.5
          -1 -0.5 0.5 0 -0.5 0.5
          1 -0.5 0.5 -1 0.5 0.5
          0 0.5 0.5 1 0.5 0.5
        </DataArray>
      </Points>
      <Cells>
        <DataArray type="Int64" Name="connectivity" format="ascii" RangeMin="0" RangeMax="11">
          0 1 2 3 4 5
          6 7 8 9 10 11
        </DataArray>
        <DataArray type="Int64" Name="offsets" format="ascii" RangeMin="1" RangeMax="12">
          1 2 3 4 5 6
          7 8 9 10 11 12
        </DataArray>
        <DataArray type="UInt8" Name="types" format="ascii" RangeMin="1" RangeMax="1">
          1 1 1 1 1 1
          1 1 1 1 1 1
        </DataArray>
      </Cells>
    </Piece>
  </UnstructuredGrid>
</VTKFile>
