<?xml version="1.0"?>
<VTKFile type="UnstructuredGrid" version="0.1" byte_order="LittleEndian" compressor="vtkZLibDataCompressor">
  <UnstructuredGrid>
    <Piece NumberOfPoints="12" NumberOfCells="12">
      <PointData>
        <DataArray type="Float64" Name="Dilatation" format="ascii" RangeMin="-0.010583521371" RangeMax="-0.0095731532627">
          -0.010583521371 -0.0095731532627 -0.010583521371 -0.010583521371 -0.0095731532627 -0.010583521371
          -0.010583521371 -0.0095731532627 -0.010583521371 -0.010583521371 -0.0095731532627 -0.010583521371
        </DataArray>
        <DataArray type="Float64" Name="Displacement" NumberOfComponents="3" format="ascii" RangeMin="0" RangeMax="0.045293797334">
          0 0 0 -0.0225 -0.004426885034 -0.004426885034
          -0.045 -7.9634896993e-17 -1.4216256433e-16 0 0.0036419827646 0
          -0.0225 0.0080688677986 -0.004426885034 -0.045 0.0036419827646 -9.7022887741e-17
          0 0 0.0036419827646 -0.0225 -0.004426885034 0.0080688677986
          -0.045 -6.2928771935e-18 0.0036419827646 0 0.0036419827646 0.0036419827646
          -0.0225 0.0080688677986 0.0080688677986 -0.045 0.0036419827646 0.0036419827646
        </DataArray>
        <DataArray type="Float64" Name="Force_Density" NumberOfComponents="3" format="ascii" RangeMin="2.6890855325e-05" RangeMax="5993621468.4">
          -5993621468.4 3.2275915146e-05 -1.0222196579e-05 1.7136335373e-05 -3.5226345062e-05 -6.1392784119e-05
          5993621468.4 8.749961853e-05 3.7789344788e-05 -5993621468.4 -1.3333279639e-05 1.2457370758e-05
          7.7486038208e-06 -2.7334317565e-05 -2.0742416382e-05 5993621468.4 -1.3658612207e-05 1.2338161469e-05
          -5993621468.4 -1.1146068573e-05 1.0590068996e-05 -4.1365623474e-05 -3.4689903259e-05 8.6417421699e-05
          5993621468.4 3.19480896e-05 -3.2485928386e-05 -5993621468.4 2.9814429581e-05 -1.2330710888e-05
          1.7166137695e-05 -2.4419277906e-06 2.0554289222e-05 5993621468.4 -4.3848529458e-05 -4.2719766498e-05
        </DataArray>
        <DataArray type="Int32" Name="ID" format="ascii" RangeMin="0" RangeMax="11">
          0 1 2 3 4 5
          6 7 8 9 10 11
        </DataArray>
        <DataArray type="Int32" Name="Proc_Num" format="ascii" RangeMin="0" RangeMax="0">
          0 0 0 0 0 0
          0 0 0 0 0 0
        </DataArray>
        <DataArray type="Float64" Name="Velocity" NumberOfComponents="3" format="ascii" RangeMin="0" RangeMax="0">
          0 0 0 0 0 0
          0 0 0 0 0 0
          0 0 0 0 0 0
          0 0 0 0 0 0
          0 0 0 0 0 0
          0 0 0 0 0 0
        </DataArray>
        <DataArray type="Float64" Name="Weighted_Volume" format="ascii" RangeMin="12" RangeMax="20">
          12 20 12 12 20 12
          12 20 12 12 20 12
        </DataArray>
      </PointData>
      <CellData>
      </CellData>
      <Points>
        <DataArray type="Float64" Name="Points" NumberOfComponents="3" format="ascii" RangeMin="0.70710678119" RangeMax="1.2247448714">
          -1 -0.5 -0.5 0 -0.5 -0.5
          1 -0.5 -0.5 -1 0.5 -0.5
          0 0.5 -0.5 1 0.5 -0.5
          -1 -0.5 0.5 0 -0.5 0.5
          1 -0.5 0.5 -1 0.5 0.5
          0 0.5 0.5 1 0.5 0.5
        </DataArray>
      </Points>
      <Cells>
        <DataArray type="Int64" Name="connectivity" format="ascii" RangeMin="0" RangeMax="11">
          0 1 2 3 4 5
          6 7 8 9 10 11
        </DataArray>
        <DataArray type="Int64" Name="offsets" format="ascii" RangeMin="1" RangeMax="12">
          1 2 3 4 5 6
          7 8 9 10 11 12
        </DataArray>
        <DataArray type="UInt8" Name="types" format="ascii" RangeMin="1" RangeMax="1">
          1 1 1 1 1 1
          1 1 1 1 1 1
        </DataArray>
      </Cells>
    </Piece>
  </UnstructuredGrid>
</VTKFile>
