<?xml version="1.0"?>
<VTKFile type="UnstructuredGrid" version="0.1" byte_order="LittleEndian" compressor="vtkZLibDataCompressor">
  <UnstructuredGrid>
    <Piece NumberOfPoints="12" NumberOfCells="12">
      <PointData>
        <DataArray type="Float64" Name="Dilatation" format="ascii" RangeMin="-0.012907157289" RangeMax="-0.011626102145">
          -0.012907157289 -0.011626102145 -0.012907157289 -0.012907157289 -0.011626102145 -0.012907157289
          -0.012907157289 -0.011626102145 -0.012907157289 -0.012907157289 -0.011626102145 -0.012907157289
        </DataArray>
        <DataArray type="Float64" Name="Displacement" NumberOfComponents="3" format="ascii" RangeMin="0" RangeMax="0.055355121323">
          0 0 0 -0.0275 -0.0054320354894 -0.0054320354894
          -0.055 -7.9843774733e-17 1.6272582135e-16 0 0.004426593308 0
          -0.0275 0.0098586287974 -0.0054320354894 -0.055 0.004426593308 -6.4734864561e-17
          0 0 0.004426593308 -0.0275 -0.0054320354894 0.0098586287974
          -0.055 -1.5441185544e-17 0.004426593308 0 0.004426593308 0.004426593308
          -0.0275 0.0098586287974 0.0098586287974 -0.055 0.004426593308 0.004426593308
        </DataArray>
        <DataArray type="Float64" Name="Force_Density" NumberOfComponents="3" format="ascii" RangeMin="7.0708574047e-05" RangeMax="7299572425.1">
          -7299572425.1 -4.4465065002e-05 2.2798776627e-05 7.7664852142e-05 6.4969062805e-06 3.1709671021e-05
          7299572425.1 2.3186206818e-05 4.8518180847e-05 -7299572425.1 2.0322855562e-05 2.3543834686e-05
          8.2969665527e-05 3.7639401853e-05 1.1086463928e-05 7299572425.1 -4.3236442718e-05 1.8537044525e-05
          -7299572425.1 2.3126602173e-05 -2.3258849978e-05 0.00013744831085 -1.7166137695e-05 -3.1941570342e-05
          7299572425.1 2.2530555725e-05 -4.6948644456e-05 -7299572425.1 1.9762665033e-06 -2.3055821657e-05
          -5.9127807617e-05 1.3437122107e-05 3.6373734474e-05 7299572425.1 -4.3664127588e-05 -6.7321583629e-05
        </DataArray>
        <DataArray type="Int32" Name="ID" format="ascii" RangeMin="0" RangeMax="11">
          0 1 2 3 4 5
          6 7 8 9 10 11
        </DataArray>
        <DataArray type="Int32" Name="Proc_Num" format="ascii" RangeMin="0" RangeMax="0">
          0 0 0 0 0 0
          0 0 0 0 0 0
        </DataArray>
        <DataArray type="Float64" Name="Velocity" NumberOfComponents="3" format="ascii" RangeMin="0" RangeMax="0">
          0 0 0 0 0 0
          0 0 0 0 0 0
          0 0 0 0 0 0
          0 0 0 0 0 0
          0 0 0 0 0 0
          0 0 0 0 0 0
        </DataArray>
        <DataArray type="Float64" Name="Weighted_Volume" format="ascii" RangeMin="12" RangeMax="20">
          12 20 12 12 20 12
          12 20 12 12 20 12
        </DataArray>
      </PointData>
      <CellData>
      </CellData>
      <Points>
        <DataArray type="Float64" Name="Points" NumberOfComponents="3" format="ascii" RangeMin="0.70710678119" RangeMax="1.2247448714">
          -1 -0.5 -0.5 0 -0.5 -0.5
          1 -0.5 -0.5 -1 0.5 -0.5
          0 0.5 -0.5 1 0.5 -0.5
          -1 -0.5 0.5 0 -0.5 0.5
          1 -0.5 0.5 -1 0.5 0.5
          0 0.5 0.5 1 0.5 0.5
        </DataArray>
      </Points>
      <Cells>
        <DataArray type="Int64" Name="connectivity" format="ascii" RangeMin="0" RangeMax="11">
          0 1 2 3 4 5
          6 7 8 9 10 11
        </DataArray>
        <DataArray type="Int64" Name="offsets" format="ascii" RangeMin="1" RangeMax="12">
          1 2 3 4 5 6
          7 8 9 10 11 12
        </DataArray>
        <DataArray type="UInt8" Name="types" format="ascii" RangeMin="1" RangeMax="1">
          1 1 1 1 1 1
          1 1 1 1 1 1
        </DataArray>
      </Cells>
    </Piece>
  </UnstructuredGrid>
</VTKFile>
