<?xml version="1.0"?>
<VTKFile type="UnstructuredGrid" version="0.1" byte_order="LittleEndian" compressor="vtkZLibDataCompressor">
  <UnstructuredGrid>
    <Piece NumberOfPoints="12" NumberOfCells="12">
      <PointData>
        <DataArray type="Float64" Name="Dilatation" format="ascii" RangeMin="-0.016374080047" RangeMax="-0.014654295893">
          -0.016374080047 -0.014654295893 -0.016374080047 -0.016374080047 -0.014654295893 -0.016374080047
          -0.016374080047 -0.014654295893 -0.016374080047 -0.016374080047 -0.014654295893 -0.016374080047
        </DataArray>
        <DataArray type="Float64" Name="Displacement" NumberOfComponents="3" format="ascii" RangeMin="0" RangeMax="0.070444312293">
          0 0 0 -0.035 -0.0069550402 -0.0069550402
          -0.07 -1.0701361556e-16 1.1251039564e-16 0 0.0055857467937 0
          -0.035 0.012540786994 -0.0069550402 -0.07 0.0055857467937 -1.3967447459e-16
          0 0 0.0055857467937 -0.035 -0.0069550402 0.012540786994
          -0.07 -3.253221352e-17 0.0055857467937 0 0.0055857467937 0.0055857467937
          -0.035 0.012540786994 0.012540786994 -0.07 0.0055857467937 0.0055857467937
        </DataArray>
        <DataArray type="Float64" Name="Force_Density" NumberOfComponents="3" format="ascii" RangeMin="3.9061495952e-05" RangeMax="9240779908.3">
          -9240779908.3 -6.4074993134e-06 -8.4638595581e-06 -1.9133090973e-05 4.8935413361e-05 -4.780292511e-05
          9240779908.3 4.8518180847e-05 -4.6253204346e-05 -9240779908.3 -4.7381967306e-05 -2.1457672119e-06
          2.3603439331e-05 -4.6940520406e-05 2.0503997803e-05 9240779908.3 2.8596836902e-06 -2.8729438782e-05
          -9240779908.3 4.1723251343e-06 2.795830369e-06 -1.9192695618e-05 -2.2888183594e-05 2.5170855224e-05
          9240779908.3 1.7046928406e-05 7.5563788414e-05 -9240779908.3 7.5329095125e-05 8.5420906544e-06
          2.5272369385e-05 -7.0799142122e-05 3.3788383007e-06 9240779908.3 -3.0435621738e-06 -2.4326145649e-06
        </DataArray>
        <DataArray type="Int32" Name="ID" format="ascii" RangeMin="0" RangeMax="11">
          0 1 2 3 4 5
          6 7 8 9 10 11
        </DataArray>
        <DataArray type="Int32" Name="Proc_Num" format="ascii" RangeMin="0" RangeMax="0">
          0 0 0 0 0 0
          0 0 0 0 0 0
        </DataArray>
        <DataArray type="Float64" Name="Velocity" NumberOfComponents="3" format="ascii" RangeMin="0" RangeMax="2011.7606923">
          0 0 0 -1000 -203.89337167 -203.89337167
          -2000 -1.4032004529e-10 7.6528025385e-11 0 153.59212708 0
          -1000 357.48549874 -203.89337167 -2000 153.59212708 5.0790814276e-11
          0 0 153.59212708 -1000 -203.89337167 357.48549874
          -2000 -4.8446610249e-11 153.59212708 0 153.59212708 153.59212708
          -1000 357.48549874 357.48549874 -2000 153.59212708 153.59212708
        </DataArray>
        <DataArray type="Float64" Name="Weighted_Volume" format="ascii" RangeMin="12" RangeMax="20">
          12 20 12 12 20 12
          12 20 12 12 20 12
        </DataArray>
      </PointData>
      <CellData>
      </CellData>
      <Points>
        <DataArray type="Float64" Name="Points" NumberOfComponents="3" format="ascii" RangeMin="0.70710678119" RangeMax="1.2247448714">
          -1 -0.5 -0.5 0 -0.5 -0.5
          1 -0.5 -0.5 -1 0.5 -0.5
          0 0.5 -0.5 1 0.5 -0.5
          -1 -0.5 0.5 0 -0.5 0.5
          1 -0.5 0.5 -1 0.5 0.5
          0 0.5 0.5 1 0.5 0.5
        </DataArray>
      </Points>
      <Cells>
        <DataArray type="Int64" Name="connectivity" format="ascii" RangeMin="0" RangeMax="11">
          0 1 2 3 4 5
          6 7 8 9 10 11
        </DataArray>
        <DataArray type="Int64" Name="offsets" format="ascii" RangeMin="1" RangeMax="12">
          1 2 3 4 5 6
          7 8 9 10 11 12
        </DataArray>
        <DataArray type="UInt8" Name="types" format="ascii" RangeMin="1" RangeMax="1">
          1 1 1 1 1 1
          1 1 1 1 1 1
        </DataArray>
      </Cells>
    </Piece>
  </UnstructuredGrid>
</VTKFile>
