<?xml version="1.0"?>
<VTKFile type="UnstructuredGrid" version="0.1" byte_order="LittleEndian" compressor="vtkZLibDataCompressor">
  <UnstructuredGrid>
    <Piece NumberOfPoints="12" NumberOfCells="12">
      <PointData>
        <DataArray type="Float64" Name="Dilatation" format="ascii" RangeMin="-0.019819284748" RangeMax="-0.017620628583">
          -0.019819284748 -0.017620628583 -0.019819284748 -0.019819284748 -0.017620628583 -0.019819284748
          -0.019819284748 -0.017620628583 -0.019819284748 -0.019819284748 -0.017620628583 -0.019819284748
        </DataArray>
        <DataArray type="Float64" Name="Displacement" NumberOfComponents="3" format="ascii" RangeMin="0" RangeMax="0.085530086169">
          0 0 0 -0.0425 -0.0084968937951 -0.0084968937951
          -0.085 3.7908407125e-17 6.3784523251e-17 0 0.0067229324006 0
          -0.0425 0.015219826196 -0.0084968937951 -0.085 0.0067229324006 -2.3634694671e-17
          0 0 0.0067229324006 -0.0425 -0.0084968937951 0.015219826196
          -0.085 2.0764210493e-16 0.0067229324006 0 0.0067229324006 0.0067229324006
          -0.0425 0.015219826196 0.015219826196 -0.085 0.0067229324006 0.0067229324006
        </DataArray>
        <DataArray type="Float64" Name="Force_Density" NumberOfComponents="3" format="ascii" RangeMin="5.0511622039e-05" RangeMax="11160709701">
          -11160709701 -3.457069397e-06 3.9458274841e-05 -1.7166137695e-05 4.7504901886e-05 1.7881393433e-07
          11160709701 3.5524368286e-05 -8.9406967163e-06 -11160709701 4.8966147006e-05 -6.3180923462e-06
          0.00011491775513 5.8613717556e-05 -3.3855438232e-05 11160709701 -3.7428347219e-05 -5.5193901062e-05
          -11160709701 -7.6293945312e-06 6.4885243773e-06 8.4638595581e-05 -8.0585479736e-05 7.9290941358e-05
          11160709701 1.0013580322e-05 3.4120289434e-05 -11160709701 -4.0091574192e-05 -6.3668936491e-05
          -6.5326690674e-05 7.5995922089e-07 -2.458691597e-07 11160709701 -3.295391798e-05 8.4266066551e-06
        </DataArray>
        <DataArray type="Int32" Name="ID" format="ascii" RangeMin="0" RangeMax="11">
          0 1 2 3 4 5
          6 7 8 9 10 11
        </DataArray>
        <DataArray type="Int32" Name="Proc_Num" format="ascii" RangeMin="0" RangeMax="0">
          0 0 0 0 0 0
          0 0 0 0 0 0
        </DataArray>
        <DataArray type="Float64" Name="Velocity" NumberOfComponents="3" format="ascii" RangeMin="0" RangeMax="0">
          0 0 0 0 0 0
          0 0 0 0 0 0
          0 0 0 0 0 0
          0 0 0 0 0 0
          0 0 0 0 0 0
          0 0 0 0 0 0
        </DataArray>
        <DataArray type="Float64" Name="Weighted_Volume" format="ascii" RangeMin="12" RangeMax="20">
          12 20 12 12 20 12
          12 20 12 12 20 12
        </DataArray>
      </PointData>
      <CellData>
      </CellData>
      <Points>
        <DataArray type="Float64" Name="Points" NumberOfComponents="3" format="ascii" RangeMin="0.70710678119" RangeMax="1.2247448714">
          -1 -0.5 -0.5 0 -0.5 -0.5
          1 -0.5 -0.5 -1 0.5 -0.5
          0 0.5 -0.5 1 0.5 -0.5
          -1 -0.5 0.5 0 -0.5 0.5
          1 -0.5 0.5 -1 0.5 0.5
          0 0.5 0.5 1 0.5 0.5
        </DataArray>
      </Points>
      <Cells>
        <DataArray type="Int64" Name="connectivity" format="ascii" RangeMin="0" RangeMax="11">
          0 1 2 3 4 5
          6 7 8 9 10 11
        </DataArray>
        <DataArray type="Int64" Name="offsets" format="ascii" RangeMin="1" RangeMax="12">
          1 2 3 4 5 6
          7 8 9 10 11 12
        </DataArray>
        <DataArray type="UInt8" Name="types" format="ascii" RangeMin="1" RangeMax="1">
          1 1 1 1 1 1
          1 1 1 1 1 1
        </DataArray>
      </Cells>
    </Piece>
  </UnstructuredGrid>
</VTKFile>
