<?xml version="1.0"?>
<VTKFile type="UnstructuredGrid" version="0.1" byte_order="LittleEndian" compressor="vtkZLibDataCompressor">
  <UnstructuredGrid>
    <Piece NumberOfPoints="12" NumberOfCells="12">
      <PointData>
        <DataArray type="Float64" Name="Dilatation" format="ascii" RangeMin="-0.015220881294" RangeMax="-0.013651749313">
          -0.015220881294 -0.013651749313 -0.015220881294 -0.015220881294 -0.013651749313 -0.015220881294
          -0.015220881294 -0.013651749313 -0.015220881294 -0.015220881294 -0.013651749313 -0.015220881294
        </DataArray>
        <DataArray type="Float64" Name="Displacement" NumberOfComponents="3" format="ascii" RangeMin="0" RangeMax="0.065414958144">
          0 0 0 -0.0325 -0.0064453067709 -0.0064453067709
          -0.065 2.4378649765e-16 -7.8809667821e-17 0 0.005201766476 0
          -0.0325 0.011647073247 -0.0064453067709 -0.065 0.005201766476 -2.6665151028e-16
          0 0 0.005201766476 -0.0325 -0.0064453067709 0.011647073247
          -0.065 8.8584312103e-17 0.005201766476 0 0.005201766476 0.005201766476
          -0.0325 0.011647073247 0.011647073247 -0.065 0.005201766476 0.005201766476
        </DataArray>
        <DataArray type="Float64" Name="Force_Density" NumberOfComponents="3" format="ascii" RangeMin="6.2925123527e-05" RangeMax="8596074041">
          -8596074041 -5.3256750107e-05 -2.658367157e-05 -2.1576881409e-05 -9.1969966888e-05 -1.5795230865e-05
          8596074041 -5.1736831665e-05 -2.5033950806e-06 -8596074041 5.2087008953e-05 -5.1021575928e-05
          -5.9008598328e-05 0.000109648332 -3.4689903259e-05 8596074041 2.3225262238e-06 4.8160552979e-05
          -8596074041 -7.9870223999e-06 6.7059881985e-06 7.6293945312e-05 -3.4689903259e-05 -1.4225952327e-05
          8596074041 2.1815299988e-05 1.9745764535e-05 -8596074041 5.2470713854e-05 2.6637688279e-05
          -1.0967254639e-05 6.0699880123e-05 1.2442469597e-05 8596074041 -5.9895217419e-05 3.0312687159e-05
        </DataArray>
        <DataArray type="Int32" Name="ID" format="ascii" RangeMin="0" RangeMax="11">
          0 1 2 3 4 5
          6 7 8 9 10 11
        </DataArray>
        <DataArray type="Int32" Name="Proc_Num" format="ascii" RangeMin="0" RangeMax="0">
          0 0 0 0 0 0
          0 0 0 0 0 0
        </DataArray>
        <DataArray type="Float64" Name="Velocity" NumberOfComponents="3" format="ascii" RangeMin="0" RangeMax="2011.908544">
          0 0 0 -1000 -203.06445403 -203.06445403
          -2000 2.2425632387e-10 -9.0978004683e-11 0 154.55741528 0
          -1000 357.62186931 -203.06445403 -2000 154.55741529 -7.7465137853e-11
          0 0 154.55741529 -1000 -203.06445403 357.62186931
          -2000 2.3385292025e-11 154.55741528 0 154.55741529 154.55741528
          -1000 357.62186931 357.62186931 -2000 154.55741529 154.55741528
        </DataArray>
        <DataArray type="Float64" Name="Weighted_Volume" format="ascii" RangeMin="12" RangeMax="20">
          12 20 12 12 20 12
          12 20 12 12 20 12
        </DataArray>
      </PointData>
      <CellData>
      </CellData>
      <Points>
        <DataArray type="Float64" Name="Points" NumberOfComponents="3" format="ascii" RangeMin="0.70710678119" RangeMax="1.2247448714">
          -1 -0.5 -0.5 0 -0.5 -0.5
          1 -0.5 -0.5 -1 0.5 -0.5
          0 0.5 -0.5 1 0.5 -0.5
          -1 -0.5 0.5 0 -0.5 0.5
          1 -0.5 0.5 -1 0.5 0.5
          0 0.5 0.5 1 0.5 0.5
        </DataArray>
      </Points>
      <Cells>
        <DataArray type="Int64" Name="connectivity" format="ascii" RangeMin="0" RangeMax="11">
          0 1 2 3 4 5
          6 7 8 9 10 11
        </DataArray>
        <DataArray type="Int64" Name="offsets" format="ascii" RangeMin="1" RangeMax="12">
          1 2 3 4 5 6
          7 8 9 10 11 12
        </DataArray>
        <DataArray type="UInt8" Name="types" format="ascii" RangeMin="1" RangeMax="1">
          1 1 1 1 1 1
          1 1 1 1 1 1
        </DataArray>
      </Cells>
    </Piece>
  </UnstructuredGrid>
</VTKFile>
