<?xml version="1.0"?>
<VTKFile type="UnstructuredGrid" version="0.1" byte_order="LittleEndian" compressor="vtkZLibDataCompressor">
  <UnstructuredGrid>
    <Piece NumberOfPoints="12" NumberOfCells="12">
      <PointData>
        <DataArray type="Float64" Name="Dilatation" format="ascii" RangeMin="-0.0047299580856" RangeMax="-0.004322088178">
          -0.0047299580856 -0.004322088178 -0.0047299580856 -0.0047299580856 -0.004322088178 -0.0047299580856
          -0.0047299580856 -0.004322088178 -0.0047299580856 -0.0047299580856 -0.004322088178 -0.0047299580856
        </DataArray>
        <DataArray type="Float64" Name="Displacement" NumberOfComponents="3" format="ascii" RangeMin="0" RangeMax="0.020134119111">
          0 0 0 -0.01 -0.0019484886516 -0.0019484886516
          -0.02 2.2206379411e-16 -1.3896342378e-16 0 0.0016405414287 0
          -0.01 0.0035890300803 -0.0019484886516 -0.02 0.0016405414287 -6.2217152625e-17
          0 0 0.0016405414287 -0.01 -0.0019484886516 0.0035890300803
          -0.02 2.1280835815e-17 0.0016405414287 0 0.0016405414287 0.0016405414287
          -0.01 0.0035890300803 0.0035890300803 -0.02 0.0016405414287 0.0016405414287
        </DataArray>
        <DataArray type="Float64" Name="Force_Density" NumberOfComponents="3" format="ascii" RangeMin="4.2173182065e-07" RangeMax="2687427942.7">
          -2687427942.7 -3.4347176552e-05 -5.8680772781e-05 -1.4901161194e-07 3.8743019104e-07 7.4505805969e-08
          2687427942.7 -5.8472156525e-05 -5.8829784393e-05 -2687427942.7 3.8739410229e-05 -6.3389539719e-05
          -4.4226646423e-05 -3.9189588279e-05 -1.1801719666e-05 2687427942.7 -1.6371021047e-05 -8.3446502686e-06
          -2687427942.7 -1.8954277039e-05 -5.3905532695e-06 2.4318695068e-05 -7.0333480835e-06 5.6982971728e-06
          2687427942.7 3.5166740417e-05 7.994507093e-06 -2687427942.7 3.8865488023e-05 3.914674744e-05
          5.9247016907e-05 8.9859124273e-05 0.00011460040696 2687427942.7 -2.8798356652e-05 3.8959085941e-05
        </DataArray>
        <DataArray type="Int32" Name="ID" format="ascii" RangeMin="0" RangeMax="11">
          0 1 2 3 4 5
          6 7 8 9 10 11
        </DataArray>
        <DataArray type="Int32" Name="Proc_Num" format="ascii" RangeMin="0" RangeMax="0">
          0 0 0 0 0 0
          0 0 0 0 0 0
        </DataArray>
        <DataArray type="Float64" Name="Velocity" NumberOfComponents="3" format="ascii" RangeMin="0" RangeMax="0">
          0 0 0 0 0 0
          0 0 0 0 0 0
          0 0 0 0 0 0
          0 0 0 0 0 0
          0 0 0 0 0 0
          0 0 0 0 0 0
        </DataArray>
        <DataArray type="Float64" Name="Weighted_Volume" format="ascii" RangeMin="12" RangeMax="20">
          12 20 12 12 20 12
          12 20 12 12 20 12
        </DataArray>
      </PointData>
      <CellData>
      </CellData>
      <Points>
        <DataArray type="Float64" Name="Points" NumberOfComponents="3" format="ascii" RangeMin="0.70710678119" RangeMax="1.2247448714">
          -1 -0.5 -0.5 0 -0.5 -0.5
          1 -0.5 -0.5 -1 0.5 -0.5
          0 0.5 -0.5 1 0.5 -0.5
          -1 -0.5 0.5 0 -0.5 0.5
          1 -0.5 0.5 -1 0.5 0.5
          0 0.5 0.5 1 0.5 0.5
        </DataArray>
      </Points>
      <Cells>
        <DataArray type="Int64" Name="connectivity" format="ascii" RangeMin="0" RangeMax="11">
          0 1 2 3 4 5
          6 7 8 9 10 11
        </DataArray>
        <DataArray type="Int64" Name="offsets" format="ascii" RangeMin="1" RangeMax="12">
          1 2 3 4 5 6
          7 8 9 10 11 12
        </DataArray>
        <DataArray type="UInt8" Name="types" format="ascii" RangeMin="1" RangeMax="1">
          1 1 1 1 1 1
          1 1 1 1 1 1
        </DataArray>
      </Cells>
    </Piece>
  </UnstructuredGrid>
</VTKFile>
