<?xml version="1.0"?>
<VTKFile type="UnstructuredGrid" version="0.1" byte_order="LittleEndian" compressor="vtkZLibDataCompressor">
  <UnstructuredGrid>
    <Piece NumberOfPoints="12" NumberOfCells="12">
      <PointData>
        <DataArray type="Float64" Name="Dilatation" format="ascii" RangeMin="-0.020962962637" RangeMax="-0.018595578674">
          -0.020962962637 -0.018595578674 -0.020962962637 -0.020962962637 -0.018595578674 -0.020962962637
          -0.020962962637 -0.018595578674 -0.020962962637 -0.020962962637 -0.018595578674 -0.020962962637
        </DataArray>
        <DataArray type="Float64" Name="Displacement" NumberOfComponents="3" format="ascii" RangeMin="0" RangeMax="0.090557905852">
          0 0 0 -0.045 -0.0090151381694 -0.0090151381694
          -0.09 -1.6647249609e-17 7.2335571688e-17 0 0.0070969821876 0
          -0.045 0.016112120357 -0.0090151381694 -0.09 0.0070969821876 8.6652887553e-17
          0 0 0.0070969821876 -0.045 -0.0090151381694 0.016112120357
          -0.09 -1.4400862296e-18 0.0070969821876 0 0.0070969821876 0.0070969821876
          -0.045 0.016112120357 0.016112120357 -0.09 0.0070969821876 0.0070969821876
        </DataArray>
        <DataArray type="Float64" Name="Force_Density" NumberOfComponents="3" format="ascii" RangeMin="1.5706997286e-05" RangeMax="11795954488">
          -11795954488 2.5659799576e-05 -1.9997358322e-05 5.0127506256e-05 1.0311603546e-05 -6.0260295868e-05
          11795954488 2.5749206543e-05 2.3722648621e-05 -11795954488 5.666166544e-06 -6.0796737671e-06
          3.7431716919e-05 -1.3219192624e-05 1.1444091797e-05 11795954488 -2.4540349841e-05 2.5272369385e-05
          -11795954488 -4.5299530029e-06 9.8062679172e-05 1.335144043e-05 -1.3589859009e-05 1.3126060367e-05
          11795954488 2.5033950806e-05 -2.3536471401e-05 -11795954488 -2.2977590561e-05 -2.4992972612e-05
          -9.5367431641e-07 1.0505318642e-05 1.1637806892e-05 11795954488 -2.3774802685e-05 -4.7914683819e-05
        </DataArray>
        <DataArray type="Int32" Name="ID" format="ascii" RangeMin="0" RangeMax="11">
          0 1 2 3 4 5
          6 7 8 9 10 11
        </DataArray>
        <DataArray type="Int32" Name="Proc_Num" format="ascii" RangeMin="0" RangeMax="0">
          0 0 0 0 0 0
          0 0 0 0 0 0
        </DataArray>
        <DataArray type="Float64" Name="Velocity" NumberOfComponents="3" format="ascii" RangeMin="0" RangeMax="0">
          0 0 0 0 0 0
          0 0 0 0 0 0
          0 0 0 0 0 0
          0 0 0 0 0 0
          0 0 0 0 0 0
          0 0 0 0 0 0
        </DataArray>
        <DataArray type="Float64" Name="Weighted_Volume" format="ascii" RangeMin="12" RangeMax="20">
          12 20 12 12 20 12
          12 20 12 12 20 12
        </DataArray>
      </PointData>
      <CellData>
      </CellData>
      <Points>
        <DataArray type="Float64" Name="Points" NumberOfComponents="3" format="ascii" RangeMin="0.70710678119" RangeMax="1.2247448714">
          -1 -0.5 -0.5 0 -0.5 -0.5
          1 -0.5 -0.5 -1 0.5 -0.5
          0 0.5 -0.5 1 0.5 -0.5
          -1 -0.5 0.5 0 -0.5 0.5
          1 -0.5 0.5 -1 0.5 0.5
          0 0.5 0.5 1 0.5 0.5
        </DataArray>
      </Points>
      <Cells>
        <DataArray type="Int64" Name="connectivity" format="ascii" RangeMin="0" RangeMax="11">
          0 1 2 3 4 5
          6 7 8 9 10 11
        </DataArray>
        <DataArray type="Int64" Name="offsets" format="ascii" RangeMin="1" RangeMax="12">
          1 2 3 4 5 6
          7 8 9 10 11 12
        </DataArray>
        <DataArray type="UInt8" Name="types" format="ascii" RangeMin="1" RangeMax="1">
          1 1 1 1 1 1
          1 1 1 1 1 1
        </DataArray>
      </Cells>
    </Piece>
  </UnstructuredGrid>
</VTKFile>
