<?xml version="1.0"?>
<VTKFile type="UnstructuredGrid" version="0.1" byte_order="LittleEndian" compressor="vtkZLibDataCompressor">
  <UnstructuredGrid>
    <Piece NumberOfPoints="12" NumberOfCells="12">
      <PointData>
        <DataArray type="Float64" Name="Dilatation" format="ascii" RangeMin="-0.0082498037" RangeMax="-0.0074930201004">
          -0.0082498037 -0.0074930201004 -0.0082498037 -0.0082498037 -0.0074930201004 -0.0082498037
          -0.0082498037 -0.0074930201004 -0.0082498037 -0.0082498037 -0.0074930201004 -0.0082498037
        </DataArray>
        <DataArray type="Float64" Name="Displacement" NumberOfComponents="3" format="ascii" RangeMin="0" RangeMax="0.03523100722">
          0 0 0 -0.0175 -0.0034296932159 -0.0034296932159
          -0.035 -1.4470708044e-16 2.4639391549e-16 0 0.0028481458656 0
          -0.0175 0.0062778390815 -0.0034296932159 -0.035 0.0028481458656 1.9408845033e-16
          0 0 0.0028481458656 -0.0175 -0.0034296932159 0.0062778390815
          -0.035 -4.1999025559e-17 0.0028481458656 0 0.0028481458656 0.0028481458656
          -0.0175 0.0062778390815 0.0062778390815 -0.035 0.0028481458656 0.0028481458656
        </DataArray>
        <DataArray type="Float64" Name="Force_Density" NumberOfComponents="3" format="ascii" RangeMin="0.00010255929629" RangeMax="4678225170.5">
          -4678225170.5 -0.00010417401791 -1.1429190636e-05 6.5624713898e-05 -5.5551528931e-05 -5.5909156799e-05
          4678225170.5 -1.8239021301e-05 -4.2796134949e-05 -4678225170.5 5.3282128647e-05 -2.8431415558e-05
          6.5386295319e-05 5.6096818298e-05 -5.6266784668e-05 4678225170.5 4.8328441967e-05 -7.301568985e-05
          -4678225170.5 -4.8577785492e-05 2.9458897188e-05 -0.00010985136032 -3.5405158997e-05 1.2049917132e-05
          4678225170.5 -3.0279159546e-05 4.8202919108e-05 -4678225170.5 7.8858342022e-05 0.00010361662135
          -6.5565109253e-05 5.6360848248e-05 5.6299380958e-05 4678225170.5 -5.7462602854e-07 1.8051825464e-05
        </DataArray>
        <DataArray type="Int32" Name="ID" format="ascii" RangeMin="0" RangeMax="11">
          0 1 2 3 4 5
          6 7 8 9 10 11
        </DataArray>
        <DataArray type="Int32" Name="Proc_Num" format="ascii" RangeMin="0" RangeMax="0">
          0 0 0 0 0 0
          0 0 0 0 0 0
        </DataArray>
        <DataArray type="Float64" Name="Velocity" NumberOfComponents="3" format="ascii" RangeMin="0" RangeMax="0">
          0 0 0 0 0 0
          0 0 0 0 0 0
          0 0 0 0 0 0
          0 0 0 0 0 0
          0 0 0 0 0 0
          0 0 0 0 0 0
        </DataArray>
        <DataArray type="Float64" Name="Weighted_Volume" format="ascii" RangeMin="12" RangeMax="20">
          12 20 12 12 20 12
          12 20 12 12 20 12
        </DataArray>
      </PointData>
      <CellData>
      </CellData>
      <Points>
        <DataArray type="Float64" Name="Points" NumberOfComponents="3" format="ascii" RangeMin="0.70710678119" RangeMax="1.2247448714">
          -1 -0.5 -0.5 0 -0.5 -0.5
          1 -0.5 -0.5 -1 0.5 -0.5
          0 0.5 -0.5 1 0.5 -0.5
          -1 -0.5 0.5 0 -0.5 0.5
          1 -0.5 0.5 -1 0.5 0.5
          0 0.5 0.5 1 0.5 0.5
        </DataArray>
      </Points>
      <Cells>
        <DataArray type="Int64" Name="connectivity" format="ascii" RangeMin="0" RangeMax="11">
          0 1 2 3 4 5
          6 7 8 9 10 11
        </DataArray>
        <DataArray type="Int64" Name="offsets" format="ascii" RangeMin="1" RangeMax="12">
          1 2 3 4 5 6
          7 8 9 10 11 12
        </DataArray>
        <DataArray type="UInt8" Name="types" format="ascii" RangeMin="1" RangeMax="1">
          1 1 1 1 1 1
          1 1 1 1 1 1
        </DataArray>
      </Cells>
    </Piece>
  </UnstructuredGrid>
</VTKFile>
