<?xml version="1.0"?>
<VTKFile type="UnstructuredGrid" version="0.1" byte_order="LittleEndian" compressor="vtkZLibDataCompressor">
  <UnstructuredGrid>
    <Piece NumberOfPoints="12" NumberOfCells="12">
      <PointData>
        <DataArray type="Float64" Name="Dilatation" format="ascii" RangeMin="-0.0070791117683" RangeMax="-0.0064427940314">
          -0.0070791117683 -0.0064427940314 -0.0070791117683 -0.0070791117683 -0.0064427940314 -0.0070791117683
          -0.0070791117683 -0.0064427940314 -0.0070791117683 -0.0070791117683 -0.0064427940314 -0.0070791117683
        </DataArray>
        <DataArray type="Float64" Name="Displacement" NumberOfComponents="3" format="ascii" RangeMin="0" RangeMax="0.030199068944">
          0 0 0 -0.015 -0.0029340328486 -0.0029340328486
          -0.03 -5.0346187271e-18 -5.1577434397e-17 0 0.002447832213 0
          -0.015 0.0053818650616 -0.0029340328486 -0.03 0.002447832213 9.8699595902e-17
          0 0 0.002447832213 -0.015 -0.0029340328486 0.0053818650616
          -0.03 -4.9566168314e-17 0.002447832213 0 0.002447832213 0.002447832213
          -0.015 0.0053818650616 0.0053818650616 -0.03 0.002447832213 0.002447832213
        </DataArray>
        <DataArray type="Float64" Name="Force_Density" NumberOfComponents="3" format="ascii" RangeMin="5.2568743285e-05" RangeMax="4016986096.3">
          -4016986096.3 -1.2382864952e-05 1.1950731277e-05 3.4749507904e-05 5.3450465202e-05 5.4091215134e-06
          4016986096.3 -1.2516975403e-05 1.1831521988e-05 -4016986096.3 -1.1274940334e-05 1.19805336e-05
          2.3901462555e-05 5.3276773542e-05 -3.0398368835e-06 4016986096.3 -1.1887058103e-05 1.2129545212e-05
          -4016986096.3 -3.2842159271e-05 3.2079638913e-05 -2.384185791e-07 -3.9100646973e-05 -3.5136239603e-05
          4016986096.3 -3.2901763916e-05 3.2434711652e-05 -4016986096.3 1.2760050595e-05 1.2094620615e-05
          -2.384185791e-07 2.1015293896e-05 -7.9556368291e-05 4016986096.3 1.2428499758e-05 -1.2251548469e-05
        </DataArray>
        <DataArray type="Int32" Name="ID" format="ascii" RangeMin="0" RangeMax="11">
          0 1 2 3 4 5
          6 7 8 9 10 11
        </DataArray>
        <DataArray type="Int32" Name="Proc_Num" format="ascii" RangeMin="0" RangeMax="0">
          0 0 0 0 0 0
          0 0 0 0 0 0
        </DataArray>
        <DataArray type="Float64" Name="Velocity" NumberOfComponents="3" format="ascii" RangeMin="0" RangeMax="2012.9215396">
          0 0 0 -1000 -197.49147045 -197.49147045
          -2000 8.3193439171e-12 -5.7649191121e-11 0 161.0172735 0
          -1000 358.50874395 -197.49147045 -2000 161.0172735 -5.6982812439e-11
          0 0 161.0172735 -1000 -197.49147045 358.50874395
          -2000 4.0661918509e-11 161.0172735 0 161.0172735 161.0172735
          -1000 358.50874395 358.50874395 -2000 161.0172735 161.0172735
        </DataArray>
        <DataArray type="Float64" Name="Weighted_Volume" format="ascii" RangeMin="12" RangeMax="20">
          12 20 12 12 20 12
          12 20 12 12 20 12
        </DataArray>
      </PointData>
      <CellData>
      </CellData>
      <Points>
        <DataArray type="Float64" Name="Points" NumberOfComponents="3" format="ascii" RangeMin="0.70710678119" RangeMax="1.2247448714">
          -1 -0.5 -0.5 0 -0.5 -0.5
          1 -0.5 -0.5 -1 0.5 -0.5
          0 0.5 -0.5 1 0.5 -0.5
          -1 -0.5 0.5 0 -0.5 0.5
          1 -0.5 0.5 -1 0.5 0.5
          0 0.5 0.5 1 0.5 0.5
        </DataArray>
      </Points>
      <Cells>
        <DataArray type="Int64" Name="connectivity" format="ascii" RangeMin="0" RangeMax="11">
          0 1 2 3 4 5
          6 7 8 9 10 11
        </DataArray>
        <DataArray type="Int64" Name="offsets" format="ascii" RangeMin="1" RangeMax="12">
          1 2 3 4 5 6
          7 8 9 10 11 12
        </DataArray>
        <DataArray type="UInt8" Name="types" format="ascii" RangeMin="1" RangeMax="1">
          1 1 1 1 1 1
          1 1 1 1 1 1
        </DataArray>
      </Cells>
    </Piece>
  </UnstructuredGrid>
</VTKFile>
