<?xml version="1.0"?>
<VTKFile type="UnstructuredGrid" version="0.1" byte_order="LittleEndian" compressor="vtkZLibDataCompressor">
  <UnstructuredGrid>
    <Piece NumberOfPoints="12" NumberOfCells="12">
      <PointData>
        <DataArray type="Float64" Name="Dilatation" format="ascii" RangeMin="-0.0011864963615" RangeMax="-0.0010905779356">
          -0.0011864963615 -0.0010905779356 -0.0011864963615 -0.0011864963615 -0.0010905779356 -0.0011864963615
          -0.0011864963615 -0.0010905779356 -0.0011864963615 -0.0011864963615 -0.0010905779356 -0.0011864963615
        </DataArray>
        <DataArray type="Float64" Name="Displacement" NumberOfComponents="3" format="ascii" RangeMin="0" RangeMax="0.0050340506298">
          0 0 0 -0.0025 -0.00048434108217 -0.00048434108217
          -0.005 2.2775745534e-16 7.2337633734e-17 0 0.0004133193339 0
          -0.0025 0.00089766041608 -0.00048434108217 -0.005 0.0004133193339 9.0299835127e-17
          0 0 0.0004133193339 -0.0025 -0.00048434108217 0.00089766041608
          -0.005 1.1743570565e-16 0.0004133193339 0 0.0004133193339 0.0004133193339
          -0.0025 0.00089766041608 0.00089766041608 -0.005 0.0004133193339 0.0004133193339
        </DataArray>
        <DataArray type="Float64" Name="Force_Density" NumberOfComponents="3" format="ascii" RangeMin="7.1548886867e-05" RangeMax="675395295.67">
          -675395295.67 9.4229355454e-05 9.4277784228e-05 -0.00014530867338 -3.1061470509e-05 -2.9560178518e-05
          675395295.67 2.3730099201e-05 -1.9602477551e-05 -675395295.67 -0.00014930780526 0.00014940649271
          -2.5928020477e-06 5.5199190683e-05 4.5448541641e-05 675395295.67 -4.3465976404e-05 4.369020462e-05
          -675395295.67 8.6113810539e-05 -0.00012932307072 -3.7178397179e-05 8.5428357124e-05 -1.0607007425e-05
          675395295.67 -1.9527971745e-05 4.4257891631e-05 -675395295.67 -5.5513475672e-05 -9.8770397017e-05
          -7.1585178375e-05 -4.1017163312e-05 -4.1105959099e-05 675395295.67 -4.796005669e-06 -4.8076952226e-05
        </DataArray>
        <DataArray type="Int32" Name="ID" format="ascii" RangeMin="0" RangeMax="11">
          0 1 2 3 4 5
          6 7 8 9 10 11
        </DataArray>
        <DataArray type="Int32" Name="Proc_Num" format="ascii" RangeMin="0" RangeMax="0">
          0 0 0 0 0 0
          0 0 0 0 0 0
        </DataArray>
        <DataArray type="Float64" Name="Velocity" NumberOfComponents="3" format="ascii" RangeMin="0" RangeMax="2013.6202519">
          0 0 0 -1000 -193.73643287 -193.73643287
          -2000 9.1102982135e-11 2.8935053494e-11 0 165.32773356 0
          -1000 359.06416643 -193.73643287 -2000 165.32773356 3.6119934051e-11
          0 0 165.32773356 -1000 -193.73643287 359.06416643
          -2000 4.6974282259e-11 165.32773356 0 165.32773356 165.32773356
          -1000 359.06416643 359.06416643 -2000 165.32773356 165.32773356
        </DataArray>
        <DataArray type="Float64" Name="Weighted_Volume" format="ascii" RangeMin="12" RangeMax="20">
          12 20 12 12 20 12
          12 20 12 12 20 12
        </DataArray>
      </PointData>
      <CellData>
      </CellData>
      <Points>
        <DataArray type="Float64" Name="Points" NumberOfComponents="3" format="ascii" RangeMin="0.70710678119" RangeMax="1.2247448714">
          -1 -0.5 -0.5 0 -0.5 -0.5
          1 -0.5 -0.5 -1 0.5 -0.5
          0 0.5 -0.5 1 0.5 -0.5
          -1 -0.5 0.5 0 -0.5 0.5
          1 -0.5 0.5 -1 0.5 0.5
          0 0.5 0.5 1 0.5 0.5
        </DataArray>
      </Points>
      <Cells>
        <DataArray type="Int64" Name="connectivity" format="ascii" RangeMin="0" RangeMax="11">
          0 1 2 3 4 5
          6 7 8 9 10 11
        </DataArray>
        <DataArray type="Int64" Name="offsets" format="ascii" RangeMin="1" RangeMax="12">
          1 2 3 4 5 6
          7 8 9 10 11 12
        </DataArray>
        <DataArray type="UInt8" Name="types" format="ascii" RangeMin="1" RangeMax="1">
          1 1 1 1 1 1
          1 1 1 1 1 1
        </DataArray>
      </Cells>
    </Piece>
  </UnstructuredGrid>
</VTKFile>
