<?xml version="1.0"?>
<VTKFile type="UnstructuredGrid" version="0.1" byte_order="LittleEndian" compressor="vtkZLibDataCompressor">
  <UnstructuredGrid>
    <Piece NumberOfPoints="12" NumberOfCells="12">
      <PointData>
        <DataArray type="Float64" Name="Displacement" NumberOfComponents="3" format="ascii" RangeMin="0" RangeMax="0.011234693708">
          0 0 0 -0.005 0.001248485307 0.001248485307
          -0.01 8.2911354497e-17 -1.8323685697e-16 0 0.003620658967 0
          -0.005 0.00237217366 0.001248485307 -0.01 0.003620658967 -6.9134028023e-17
          0 0 0.003620658967 -0.005 0.001248485307 0.00237217366
          -0.01 -4.316852683e-17 0.003620658967 0 0.003620658967 0.003620658967
          -0.005 0.00237217366 0.00237217366 -0.01 0.003620658967 0.003620658967
        </DataArray>
        <DataArray type="Float64" Name="Velocity" NumberOfComponents="3" format="ascii" RangeMin="0" RangeMax="0">
          0 0 0 0 0 0
          0 0 0 0 0 0
          0 0 0 0 0 0
          0 0 0 0 0 0
          0 0 0 0 0 0
          0 0 0 0 0 0
        </DataArray>
        <DataArray type="Float64" Name="Force Density" NumberOfComponents="3" format="ascii" RangeMin="3.3765829935e-05" RangeMax="2725098760.5">
          -2725098760.5 3.9204955101e-05 2.4706125259e-05 2.1054409444e-05 -4.2169820517e-05 -4.2229890823e-05
          2725098760.5 -1.2814998627e-05 3.3229589462e-06 -2725098760.5 -3.922034912e-05 3.9324164391e-05
          1.4901161194e-08 2.3991626222e-05 -2.3759901524e-05 2725098760.5 1.2160890037e-06 1.4692544937e-05
          -2725098760.5 2.9921531677e-05 -1.4720642778e-05 -6.0118734837e-05 4.1410326958e-05 -4.9431400839e-07
          2725098760.5 1.4781951904e-05 -4.6009753335e-07 -2725098760.5 -2.9708582479e-05 -1.4682216607e-05
          -6.0200691223e-05 -2.3149099434e-05 1.7715530703e-05 2725098760.5 -3.490189556e-06 -3.4502591006e-06
        </DataArray>
        <DataArray type="Int32" Name="Id" format="ascii" RangeMin="0" RangeMax="11">
          0 1 2 3 4 5
          6 7 8 9 10 11
        </DataArray>
        <DataArray type="Int32" Name="Proc_Num" format="ascii" RangeMin="0" RangeMax="0">
          0 0 0 0 0 0
          0 0 0 0 0 0
        </DataArray>
        <DataArray type="Float64" Name="Damage" format="ascii" RangeMin="0" RangeMax="0">
          0 0 0 0 0 0
          0 0 0 0 0 0
        </DataArray>
        <DataArray type="Float64" Name="Dilatation" format="ascii" RangeMin="-0.0057551513761" RangeMax="-0.0024646420249">
          -0.0057551513761 -0.0024646420249 -0.0057551513761 -0.0057551513761 -0.0024646420249 -0.0057551513761
          -0.0057551513761 -0.0024646420249 -0.0057551513761 -0.0057551513761 -0.0024646420249 -0.0057551513761
        </DataArray>
        <DataArray type="Float64" Name="Weighted_Volume" format="ascii" RangeMin="20" RangeMax="32">
          32 20 32 32 20 32
          32 20 32 32 20 32
        </DataArray>
      </PointData>
      <CellData>
      </CellData>
      <Points>
        <DataArray type="Float64" Name="Points" NumberOfComponents="3" format="ascii" RangeMin="0.70710678119" RangeMax="1.2247448714">
          -1 -0.5 -0.5 0 -0.5 -0.5
          1 -0.5 -0.5 -1 0.5 -0.5
          0 0.5 -0.5 1 0.5 -0.5
          -1 -0.5 0.5 0 -0.5 0.5
          1 -0.5 0.5 -1 0.5 0.5
          0 0.5 0.5 1 0.5 0.5
        </DataArray>
      </Points>
      <Cells>
        <DataArray type="Int32" Name="connectivity" format="ascii" RangeMin="0" RangeMax="11">
          0 1 2 3 4 5
          6 7 8 9 10 11
        </DataArray>
        <DataArray type="Int32" Name="offsets" format="ascii" RangeMin="1" RangeMax="12">
          1 2 3 4 5 6
          7 8 9 10 11 12
        </DataArray>
        <DataArray type="UInt8" Name="types" format="ascii" RangeMin="1" RangeMax="1">
          1 1 1 1 1 1
          1 1 1 1 1 1
        </DataArray>
      </Cells>
    </Piece>
  </UnstructuredGrid>
</VTKFile>
