<?xml version="1.0"?>
<VTKFile type="UnstructuredGrid" version="0.1" byte_order="LittleEndian" compressor="vtkZLibDataCompressor">
  <UnstructuredGrid>
    <Piece NumberOfPoints="12" NumberOfCells="12">
      <PointData>
        <DataArray type="Float64" Name="Dilatation" format="ascii" RangeMin="-0.018673259798" RangeMax="-0.016638752786">
          -0.018673259798 -0.016638752786 -0.018673259798 -0.018673259798 -0.016638752786 -0.018673259798
          -0.018673259798 -0.016638752786 -0.018673259798 -0.018673259798 -0.016638752786 -0.018673259798
        </DataArray>
        <DataArray type="Float64" Name="Displacement" NumberOfComponents="3" format="ascii" RangeMin="0" RangeMax="0.080501878932">
          0 0 0 -0.04 -0.0079808113163 -0.0079808113163
          -0.08 1.5654785965e-16 1.535694491e-16 0 0.0063463576806 0
          -0.04 0.014327168997 -0.0079808113163 -0.08 0.0063463576806 9.1099355549e-17
          0 0 0.0063463576806 -0.04 -0.0079808113163 0.014327168997
          -0.08 5.6558912246e-17 0.0063463576806 0 0.0063463576806 0.0063463576806
          -0.04 0.014327168997 0.014327168997 -0.08 0.0063463576806 0.0063463576806
        </DataArray>
        <DataArray type="Float64" Name="Force_Density" NumberOfComponents="3" format="ascii" RangeMin="2.8796261718e-05" RangeMax="10523098473">
          -10523098473 -5.8114528656e-06 -5.1558017731e-06 2.3901462555e-05 -1.3649463654e-05 8.4638595581e-06
          10523098473 -2.4795532227e-05 -4.9352645874e-05 -10523098473 2.8253532946e-05 -5.1259994507e-06
          5.8889389038e-05 -9.1474503279e-06 -1.4781951904e-05 10523098473 -2.5543939214e-05 -2.4676322937e-05
          -10523098473 -5.2452087402e-06 5.2088871598e-06 -2.2888183594e-05 -1.5735626221e-05 1.5422701836e-05
          10523098473 2.6226043701e-05 -2.5124011615e-05 -10523098473 2.8319656849e-05 3.0811876059e-05
          -0.0001015663147 -1.1462718248e-05 5.8230012655e-05 10523098473 2.8356909752e-05 6.2473118305e-06
        </DataArray>
        <DataArray type="Int32" Name="ID" format="ascii" RangeMin="0" RangeMax="11">
          0 1 2 3 4 5
          6 7 8 9 10 11
        </DataArray>
        <DataArray type="Int32" Name="Proc_Num" format="ascii" RangeMin="0" RangeMax="0">
          0 0 0 0 0 0
          0 0 0 0 0 0
        </DataArray>
        <DataArray type="Float64" Name="Velocity" NumberOfComponents="3" format="ascii" RangeMin="0" RangeMax="0">
          0 0 0 0 0 0
          0 0 0 0 0 0
          0 0 0 0 0 0
          0 0 0 0 0 0
          0 0 0 0 0 0
          0 0 0 0 0 0
        </DataArray>
        <DataArray type="Float64" Name="Weighted_Volume" format="ascii" RangeMin="12" RangeMax="20">
          12 20 12 12 20 12
          12 20 12 12 20 12
        </DataArray>
      </PointData>
      <CellData>
      </CellData>
      <Points>
        <DataArray type="Float64" Name="Points" NumberOfComponents="3" format="ascii" RangeMin="0.70710678119" RangeMax="1.2247448714">
          -1 -0.5 -0.5 0 -0.5 -0.5
          1 -0.5 -0.5 -1 0.5 -0.5
          0 0.5 -0.5 1 0.5 -0.5
          -1 -0.5 0.5 0 -0.5 0.5
          1 -0.5 0.5 -1 0.5 0.5
          0 0.5 0.5 1 0.5 0.5
        </DataArray>
      </Points>
      <Cells>
        <DataArray type="Int64" Name="connectivity" format="ascii" RangeMin="0" RangeMax="11">
          0 1 2 3 4 5
          6 7 8 9 10 11
        </DataArray>
        <DataArray type="Int64" Name="offsets" format="ascii" RangeMin="1" RangeMax="12">
          1 2 3 4 5 6
          7 8 9 10 11 12
        </DataArray>
        <DataArray type="UInt8" Name="types" format="ascii" RangeMin="1" RangeMax="1">
          1 1 1 1 1 1
          1 1 1 1 1 1
        </DataArray>
      </Cells>
    </Piece>
  </UnstructuredGrid>
</VTKFile>
