<?xml version="1.0"?>
<VTKFile type="UnstructuredGrid" version="0.1" byte_order="LittleEndian" compressor="vtkZLibDataCompressor">
  <UnstructuredGrid>
    <Piece NumberOfPoints="12" NumberOfCells="12">
      <PointData>
        <DataArray type="Float64" Name="Displacement" NumberOfComponents="3" format="ascii" RangeMin="0" RangeMax="0.095862236935">
          0 0 0 -0.0425 0.01129090771 0.01129090771
          -0.085 -6.5158471114e-17 2.5138973079e-17 0 0.031341414056 0
          -0.0425 0.020050506346 0.01129090771 -0.085 0.031341414056 -1.3867871457e-16
          0 0 0.031341414056 -0.0425 0.01129090771 0.020050506346
          -0.085 3.8556663974e-17 0.031341414056 0 0.031341414056 0.031341414056
          -0.0425 0.020050506346 0.020050506346 -0.085 0.031341414056 0.031341414056
        </DataArray>
        <DataArray type="Float64" Name="Velocity" NumberOfComponents="3" format="ascii" RangeMin="0" RangeMax="0">
          0 0 0 0 0 0
          0 0 0 0 0 0
          0 0 0 0 0 0
          0 0 0 0 0 0
          0 0 0 0 0 0
          0 0 0 0 0 0
        </DataArray>
        <DataArray type="Float64" Name="Force_Density" NumberOfComponents="3" format="ascii" RangeMin="2.0079463154e-05" RangeMax="22560661444">
          -22560661444 3.5762786865e-07 -1.5020370483e-05 2.483278513e-05 3.1867995858e-05 1.6434118152e-05
          22560661444 -1.6212463379e-05 0 -22560661444 5.9325248003e-07 4.768371582e-07
          1.0192394257e-05 -1.2760050595e-05 -1.1682510376e-05 22560661444 1.1558557107e-05 2.384185791e-07
          -22560661444 1.2397766113e-05 3.0221417546e-06 5.1081180573e-05 -3.9279460907e-05 1.4185905457e-05
          22560661444 -1.4066696167e-05 -1.4593824744e-06 -22560661444 3.7364661694e-06 -1.1379400078e-05
          -2.5272369385e-05 3.3874064684e-05 1.8652528524e-05 22560661444 -1.2945383787e-05 -1.3377517462e-05
        </DataArray>
        <DataArray type="Int32" Name="ID" format="ascii" RangeMin="0" RangeMax="11">
          0 1 2 3 4 5
          6 7 8 9 10 11
        </DataArray>
        <DataArray type="Int32" Name="Proc_Num" format="ascii" RangeMin="0" RangeMax="0">
          0 0 0 0 0 0
          0 0 0 0 0 0
        </DataArray>
        <DataArray type="Float64" Name="Damage" format="ascii" RangeMin="0" RangeMax="0">
          0 0 0 0 0 0
          0 0 0 0 0 0
        </DataArray>
        <DataArray type="Float64" Name="Dilatation" format="ascii" RangeMin="-0.04756277029" RangeMax="-0.020620150035">
          -0.04756277029 -0.020620150035 -0.04756277029 -0.04756277029 -0.020620150035 -0.04756277029
          -0.04756277029 -0.020620150035 -0.04756277029 -0.04756277029 -0.020620150035 -0.04756277029
        </DataArray>
        <DataArray type="Float64" Name="Weighted_Volume" format="ascii" RangeMin="20" RangeMax="32">
          32 20 32 32 20 32
          32 20 32 32 20 32
        </DataArray>
      </PointData>
      <CellData>
      </CellData>
      <Points>
        <DataArray type="Float64" Name="Points" NumberOfComponents="3" format="ascii" RangeMin="0.70710678119" RangeMax="1.2247448714">
          -1 -0.5 -0.5 0 -0.5 -0.5
          1 -0.5 -0.5 -1 0.5 -0.5
          0 0.5 -0.5 1 0.5 -0.5
          -1 -0.5 0.5 0 -0.5 0.5
          1 -0.5 0.5 -1 0.5 0.5
          0 0.5 0.5 1 0.5 0.5
        </DataArray>
      </Points>
      <Cells>
        <DataArray type="Int32" Name="connectivity" format="ascii" RangeMin="0" RangeMax="11">
          0 1 2 3 4 5
          6 7 8 9 10 11
        </DataArray>
        <DataArray type="Int32" Name="offsets" format="ascii" RangeMin="1" RangeMax="12">
          1 2 3 4 5 6
          7 8 9 10 11 12
        </DataArray>
        <DataArray type="UInt8" Name="types" format="ascii" RangeMin="1" RangeMax="1">
          1 1 1 1 1 1
          1 1 1 1 1 1
        </DataArray>
      </Cells>
    </Piece>
  </UnstructuredGrid>
</VTKFile>
