<?xml version="1.0"?>
<VTKFile type="UnstructuredGrid" version="0.1" byte_order="LittleEndian" compressor="vtkZLibDataCompressor">
  <UnstructuredGrid>
    <Piece NumberOfPoints="12" NumberOfCells="12">
      <PointData>
        <DataArray type="Float64" Name="Dilatation" format="ascii" RangeMin="-0.023243366841" RangeMax="-0.020524626456">
          -0.023243366841 -0.020524626456 -0.023243366841 -0.023243366841 -0.020524626456 -0.023243366841
          -0.023243366841 -0.020524626456 -0.023243366841 -0.023243366841 -0.020524626456 -0.023243366841
        </DataArray>
        <DataArray type="Float64" Name="Displacement" NumberOfComponents="3" format="ascii" RangeMin="0" RangeMax="0.10061237207">
          0 0 0 -0.05 -0.010058207245 -0.010058207245
          -0.1 8.7100866305e-17 -9.4084652013e-18 0 0.0078373915671 0
          -0.05 0.017895598812 -0.010058207245 -0.1 0.0078373915671 1.629173005e-16
          0 0 0.0078373915671 -0.05 -0.010058207245 0.017895598812
          -0.1 9.0969207398e-18 0.0078373915671 0 0.0078373915671 0.0078373915671
          -0.05 0.017895598812 0.017895598812 -0.1 0.0078373915671 0.0078373915671
        </DataArray>
        <DataArray type="Float64" Name="Force_Density" NumberOfComponents="3" format="ascii" RangeMin="5.1620839021e-05" RangeMax="13059341179">
          -13059341179 -3.6239624023e-05 -3.5643577576e-05 6.1213970184e-05 3.6418437958e-05 8.6605548859e-05
          13059341179 1.5735626221e-05 1.59740448e-05 -13059341179 1.4582648873e-05 -1.6331672668e-05
          2.3365020752e-05 4.6193599701e-05 -4.8398971558e-05 13059341179 -8.0376722679e-06 -1.5258789062e-05
          -13059341179 -4.1484832764e-05 -9.7267329693e-06 0 -4.6968460083e-05 2.1416693926e-05
          13059341179 -1.5616416931e-05 -8.7704791098e-06 -13059341179 1.4688819647e-05 1.559779048e-05
          5.8174133301e-05 7.6338648796e-05 7.3470175266e-05 13059341179 -5.5536627769e-05 -7.9147517681e-05
        </DataArray>
        <DataArray type="Int32" Name="ID" format="ascii" RangeMin="0" RangeMax="11">
          0 1 2 3 4 5
          6 7 8 9 10 11
        </DataArray>
        <DataArray type="Int32" Name="Proc_Num" format="ascii" RangeMin="0" RangeMax="0">
          0 0 0 0 0 0
          0 0 0 0 0 0
        </DataArray>
        <DataArray type="Float64" Name="Velocity" NumberOfComponents="3" format="ascii" RangeMin="0" RangeMax="0">
          0 0 0 0 0 0
          0 0 0 0 0 0
          0 0 0 0 0 0
          0 0 0 0 0 0
          0 0 0 0 0 0
          0 0 0 0 0 0
        </DataArray>
        <DataArray type="Float64" Name="Weighted_Volume" format="ascii" RangeMin="12" RangeMax="20">
          12 20 12 12 20 12
          12 20 12 12 20 12
        </DataArray>
      </PointData>
      <CellData>
      </CellData>
      <Points>
        <DataArray type="Float64" Name="Points" NumberOfComponents="3" format="ascii" RangeMin="0.70710678119" RangeMax="1.2247448714">
          -1 -0.5 -0.5 0 -0.5 -0.5
          1 -0.5 -0.5 -1 0.5 -0.5
          0 0.5 -0.5 1 0.5 -0.5
          -1 -0.5 0.5 0 -0.5 0.5
          1 -0.5 0.5 -1 0.5 0.5
          0 0.5 0.5 1 0.5 0.5
        </DataArray>
      </Points>
      <Cells>
        <DataArray type="Int64" Name="connectivity" format="ascii" RangeMin="0" RangeMax="11">
          0 1 2 3 4 5
          6 7 8 9 10 11
        </DataArray>
        <DataArray type="Int64" Name="offsets" format="ascii" RangeMin="1" RangeMax="12">
          1 2 3 4 5 6
          7 8 9 10 11 12
        </DataArray>
        <DataArray type="UInt8" Name="types" format="ascii" RangeMin="1" RangeMax="1">
          1 1 1 1 1 1
          1 1 1 1 1 1
        </DataArray>
      </Cells>
    </Piece>
  </UnstructuredGrid>
</VTKFile>
