<?xml version="1.0"?>
<VTKFile type="UnstructuredGrid" version="0.1" byte_order="LittleEndian" compressor="vtkZLibDataCompressor">
  <UnstructuredGrid>
    <Piece NumberOfPoints="12" NumberOfCells="12">
      <PointData>
        <DataArray type="Float64" Name="Dilatation" format="ascii" RangeMin="-0.017524865582" RangeMax="-0.015649969378">
          -0.017524865582 -0.015649969378 -0.017524865582 -0.017524865582 -0.015649969378 -0.017524865582
          -0.017524865582 -0.015649969378 -0.017524865582 -0.017524865582 -0.015649969378 -0.017524865582
        </DataArray>
        <DataArray type="Float64" Name="Displacement" NumberOfComponents="3" format="ascii" RangeMin="0" RangeMax="0.075473286765">
          0 0 0 -0.0375 -0.0074668676577 -0.0074668676577
          -0.075 -7.7060653964e-17 -1.7172437623e-17 0 0.005967286449 0
          -0.0375 0.013434154107 -0.0074668676577 -0.075 0.005967286449 -1.1189640796e-16
          0 0 0.005967286449 -0.0375 -0.0074668676577 0.013434154107
          -0.075 4.1910056671e-17 0.005967286449 0 0.005967286449 0.005967286449
          -0.0375 0.013434154107 0.013434154107 -0.075 0.005967286449 0.005967286449
        </DataArray>
        <DataArray type="Float64" Name="Force_Density" NumberOfComponents="3" format="ascii" RangeMin="4.366730816e-05" RangeMax="9883121621.5">
          -9883121621.5 3.519654274e-05 3.5375356674e-05 -3.7312507629e-05 1.6510486603e-05 1.5556812286e-05
          9883121621.5 5.7816505432e-05 1.4543533325e-05 -9883121621.5 -3.4691765904e-05 3.6120414734e-05
          3.6478042603e-05 1.3131648302e-06 4.8875808716e-05 9883121621.5 -8.7888911366e-05 4.5418739319e-05
          -9883121621.5 1.4901161194e-05 -1.4076009393e-05 -3.719329834e-05 2.3603439331e-05 1.1939555407e-06
          9883121621.5 6.5684318542e-05 -6.5525943216e-05 -9883121621.5 -3.4835189581e-05 -3.4797936678e-05
          -3.719329834e-05 -4.2300671339e-05 -6.7323446274e-05 9883121621.5 -1.5031546354e-05 -1.5005469322e-05
        </DataArray>
        <DataArray type="Int32" Name="ID" format="ascii" RangeMin="0" RangeMax="11">
          0 1 2 3 4 5
          6 7 8 9 10 11
        </DataArray>
        <DataArray type="Int32" Name="Proc_Num" format="ascii" RangeMin="0" RangeMax="0">
          0 0 0 0 0 0
          0 0 0 0 0 0
        </DataArray>
        <DataArray type="Float64" Name="Velocity" NumberOfComponents="3" format="ascii" RangeMin="0" RangeMax="0">
          0 0 0 0 0 0
          0 0 0 0 0 0
          0 0 0 0 0 0
          0 0 0 0 0 0
          0 0 0 0 0 0
          0 0 0 0 0 0
        </DataArray>
        <DataArray type="Float64" Name="Weighted_Volume" format="ascii" RangeMin="12" RangeMax="20">
          12 20 12 12 20 12
          12 20 12 12 20 12
        </DataArray>
      </PointData>
      <CellData>
      </CellData>
      <Points>
        <DataArray type="Float64" Name="Points" NumberOfComponents="3" format="ascii" RangeMin="0.70710678119" RangeMax="1.2247448714">
          -1 -0.5 -0.5 0 -0.5 -0.5
          1 -0.5 -0.5 -1 0.5 -0.5
          0 0.5 -0.5 1 0.5 -0.5
          -1 -0.5 0.5 0 -0.5 0.5
          1 -0.5 0.5 -1 0.5 0.5
          0 0.5 0.5 1 0.5 0.5
        </DataArray>
      </Points>
      <Cells>
        <DataArray type="Int64" Name="connectivity" format="ascii" RangeMin="0" RangeMax="11">
          0 1 2 3 4 5
          6 7 8 9 10 11
        </DataArray>
        <DataArray type="Int64" Name="offsets" format="ascii" RangeMin="1" RangeMax="12">
          1 2 3 4 5 6
          7 8 9 10 11 12
        </DataArray>
        <DataArray type="UInt8" Name="types" format="ascii" RangeMin="1" RangeMax="1">
          1 1 1 1 1 1
          1 1 1 1 1 1
        </DataArray>
      </Cells>
    </Piece>
  </UnstructuredGrid>
</VTKFile>
