<?xml version="1.0"?>
<VTKFile type="UnstructuredGrid" version="0.1" byte_order="LittleEndian" compressor="vtkZLibDataCompressor">
  <UnstructuredGrid>
    <Piece NumberOfPoints="12" NumberOfCells="12">
      <PointData>
        <DataArray type="Float64" Name="Dilatation" format="ascii" RangeMin="-0.023243366841" RangeMax="-0.020524626456">
          -0.023243366841 -0.020524626456 -0.023243366841 -0.023243366841 -0.020524626456 -0.023243366841
          -0.023243366841 -0.020524626456 -0.023243366841 -0.023243366841 -0.020524626456 -0.023243366841
        </DataArray>
        <DataArray type="Float64" Name="Displacement" NumberOfComponents="3" format="ascii" RangeMin="0" RangeMax="0.10061237207">
          0 0 0 -0.05 -0.010058207245 -0.010058207245
          -0.1 -4.9580254405e-17 -9.8381254655e-19 0 0.0078373915671 0
          -0.05 0.017895598812 -0.010058207245 -0.1 0.0078373915671 1.9577144008e-16
          0 0 0.0078373915671 -0.05 -0.010058207245 0.017895598812
          -0.1 -1.08364485e-16 0.0078373915671 0 0.0078373915671 0.0078373915671
          -0.05 0.017895598812 0.017895598812 -0.1 0.0078373915671 0.0078373915671
        </DataArray>
        <DataArray type="Float64" Name="Force_Density" NumberOfComponents="3" format="ascii" RangeMin="4.1215106096e-05" RangeMax="13059341179">
          -13059341179 -1.6421079636e-05 -1.585483551e-05 -2.8014183044e-06 -5.3822994232e-05 -2.8669834137e-05
          13059341179 -1.6689300537e-05 -1.5497207642e-05 -13059341179 1.5018507838e-05 9.298324585e-06
          2.7179718018e-05 5.5367127061e-05 2.0503997803e-05 13059341179 1.6042604221e-05 -1.4543533325e-05
          -13059341179 -1.5139579773e-05 1.4267861843e-05 3.8146972656e-06 -2.8848648071e-05 3.1175091863e-05
          13059341179 -1.6093254089e-05 1.4905603382e-05 -13059341179 1.5806406736e-05 1.4800578356e-05
          -2.0027160645e-05 2.9429793358e-05 -2.0772218704e-05 13059341179 1.5869736671e-05 -9.2759728432e-06
        </DataArray>
        <DataArray type="Int32" Name="ID" format="ascii" RangeMin="0" RangeMax="11">
          0 1 2 3 4 5
          6 7 8 9 10 11
        </DataArray>
        <DataArray type="Int32" Name="Proc_Num" format="ascii" RangeMin="0" RangeMax="0">
          0 0 0 0 0 0
          0 0 0 0 0 0
        </DataArray>
        <DataArray type="Float64" Name="Velocity" NumberOfComponents="3" format="ascii" RangeMin="0" RangeMax="2010.8582855">
          0 0 0 -1000 -209.05570565 -209.05570565
          -2000 1.5663371896e-10 -4.7151072015e-11 0 147.56531494 0
          -1000 356.62102058 -209.05570565 -2000 147.56531494 1.4723690186e-10
          0 0 147.56531494 -1000 -209.05570565 356.62102058
          -2000 8.2059109322e-11 147.56531494 0 147.56531494 147.56531494
          -1000 356.62102058 356.62102058 -2000 147.56531494 147.56531494
        </DataArray>
        <DataArray type="Float64" Name="Weighted_Volume" format="ascii" RangeMin="12" RangeMax="20">
          12 20 12 12 20 12
          12 20 12 12 20 12
        </DataArray>
      </PointData>
      <CellData>
      </CellData>
      <Points>
        <DataArray type="Float64" Name="Points" NumberOfComponents="3" format="ascii" RangeMin="0.70710678119" RangeMax="1.2247448714">
          -1 -0.5 -0.5 0 -0.5 -0.5
          1 -0.5 -0.5 -1 0.5 -0.5
          0 0.5 -0.5 1 0.5 -0.5
          -1 -0.5 0.5 0 -0.5 0.5
          1 -0.5 0.5 -1 0.5 0.5
          0 0.5 0.5 1 0.5 0.5
        </DataArray>
      </Points>
      <Cells>
        <DataArray type="Int64" Name="connectivity" format="ascii" RangeMin="0" RangeMax="11">
          0 1 2 3 4 5
          6 7 8 9 10 11
        </DataArray>
        <DataArray type="Int64" Name="offsets" format="ascii" RangeMin="1" RangeMax="12">
          1 2 3 4 5 6
          7 8 9 10 11 12
        </DataArray>
        <DataArray type="UInt8" Name="types" format="ascii" RangeMin="1" RangeMax="1">
          1 1 1 1 1 1
          1 1 1 1 1 1
        </DataArray>
      </Cells>
    </Piece>
  </UnstructuredGrid>
</VTKFile>
