<?xml version="1.0"?>
<VTKFile type="UnstructuredGrid" version="0.1" byte_order="LittleEndian" compressor="vtkZLibDataCompressor">
  <UnstructuredGrid>
    <Piece NumberOfPoints="12" NumberOfCells="12">
      <PointData>
        <DataArray type="Float64" Name="Dilatation" format="ascii" RangeMin="-0.005905836758" RangeMax="-0.0053858125202">
          -0.005905836758 -0.0053858125202 -0.005905836758 -0.005905836758 -0.0053858125202 -0.005905836758
          -0.005905836758 -0.0053858125202 -0.005905836758 -0.005905836758 -0.0053858125202 -0.005905836758
        </DataArray>
        <DataArray type="Float64" Name="Displacement" NumberOfComponents="3" format="ascii" RangeMin="0" RangeMax="0.02516677203">
          0 0 0 -0.0125 -0.0024403041725 -0.0024403041725
          -0.025 6.1106605566e-17 -2.0073355697e-16 0 0.0020452890293 0
          -0.0125 0.0044855932017 -0.0024403041725 -0.025 0.0020452890293 1.9960164261e-17
          0 0 0.0020452890293 -0.0125 -0.0024403041725 0.0044855932017
          -0.025 -9.5878932048e-17 0.0020452890293 0 0.0020452890293 0.0020452890293
          -0.0125 0.0044855932017 0.0044855932017 -0.025 0.0020452890293 0.0020452890293
        </DataArray>
        <DataArray type="Float64" Name="Force_Density" NumberOfComponents="3" format="ascii" RangeMin="4.109415531e-05" RangeMax="3353386908.3">
          -3353386908.3 4.0322542191e-05 -2.6077032089e-06 1.7210841179e-05 3.6001205444e-05 9.8198652267e-06
          3353386908.3 5.4657459259e-05 -1.3649463654e-05 -3353386908.3 -2.9993942007e-05 2.9921531677e-05
          4.1484832764e-05 -2.008897718e-05 -5.5849552155e-05 3353386908.3 6.6547900476e-07 -8.6426734924e-07
          -3353386908.3 1.0102987289e-05 3.3743097447e-05 -4.1723251343e-05 6.0141086578e-05 -9.9942553788e-06
          3353386908.3 -2.0712614059e-05 6.3712053038e-05 -3353386908.3 -8.5107050836e-05 -5.998602137e-05
          3.719329834e-05 -1.5825033188e-05 3.5674311221e-05 3353386908.3 -3.007100895e-05 -2.9870774597e-05
        </DataArray>
        <DataArray type="Int32" Name="ID" format="ascii" RangeMin="0" RangeMax="11">
          0 1 2 3 4 5
          6 7 8 9 10 11
        </DataArray>
        <DataArray type="Int32" Name="Proc_Num" format="ascii" RangeMin="0" RangeMax="0">
          0 0 0 0 0 0
          0 0 0 0 0 0
        </DataArray>
        <DataArray type="Float64" Name="Velocity" NumberOfComponents="3" format="ascii" RangeMin="0" RangeMax="0">
          0 0 0 0 0 0
          0 0 0 0 0 0
          0 0 0 0 0 0
          0 0 0 0 0 0
          0 0 0 0 0 0
          0 0 0 0 0 0
        </DataArray>
        <DataArray type="Float64" Name="Weighted_Volume" format="ascii" RangeMin="12" RangeMax="20">
          12 20 12 12 20 12
          12 20 12 12 20 12
        </DataArray>
      </PointData>
      <CellData>
      </CellData>
      <Points>
        <DataArray type="Float64" Name="Points" NumberOfComponents="3" format="ascii" RangeMin="0.70710678119" RangeMax="1.2247448714">
          -1 -0.5 -0.5 0 -0.5 -0.5
          1 -0.5 -0.5 -1 0.5 -0.5
          0 0.5 -0.5 1 0.5 -0.5
          -1 -0.5 0.5 0 -0.5 0.5
          1 -0.5 0.5 -1 0.5 0.5
          0 0.5 0.5 1 0.5 0.5
        </DataArray>
      </Points>
      <Cells>
        <DataArray type="Int64" Name="connectivity" format="ascii" RangeMin="0" RangeMax="11">
          0 1 2 3 4 5
          6 7 8 9 10 11
        </DataArray>
        <DataArray type="Int64" Name="offsets" format="ascii" RangeMin="1" RangeMax="12">
          1 2 3 4 5 6
          7 8 9 10 11 12
        </DataArray>
        <DataArray type="UInt8" Name="types" format="ascii" RangeMin="1" RangeMax="1">
          1 1 1 1 1 1
          1 1 1 1 1 1
        </DataArray>
      </Cells>
    </Piece>
  </UnstructuredGrid>
</VTKFile>
