<?xml version="1.0"?>
<VTKFile type="UnstructuredGrid" version="0.1" byte_order="LittleEndian" compressor="vtkZLibDataCompressor">
  <UnstructuredGrid>
    <Piece NumberOfPoints="12" NumberOfCells="12">
      <PointData>
        <DataArray type="Float64" Name="Dilatation" format="ascii" RangeMin="-0.011746588989" RangeMax="-0.010603032896">
          -0.011746588989 -0.010603032896 -0.011746588989 -0.011746588989 -0.010603032896 -0.011746588989
          -0.011746588989 -0.010603032896 -0.011746588989 -0.011746588989 -0.010603032896 -0.011746588989
        </DataArray>
        <DataArray type="Float64" Name="Displacement" NumberOfComponents="3" format="ascii" RangeMin="0" RangeMax="0.050324643909">
          0 0 0 -0.025 -0.0049284554466 -0.0049284554466
          -0.05 1.8361851815e-16 -5.0251101453e-17 0 0.0040354544094 0
          -0.025 0.0089639098559 -0.0049284554466 -0.05 0.0040354544094 7.0336448163e-17
          0 0 0.0040354544094 -0.025 -0.0049284554466 0.0089639098559
          -0.05 -7.7807591571e-18 0.0040354544094 0 0.0040354544094 0.0040354544094
          -0.025 0.0089639098559 0.0089639098559 -0.05 0.0040354544094 0.0040354544094
        </DataArray>
        <DataArray type="Float64" Name="Force_Density" NumberOfComponents="3" format="ascii" RangeMin="3.342043761e-05" RangeMax="6647777849">
          -6647777849 1.8954277039e-05 -2.4169683456e-05 2.4229288101e-05 -3.4362077713e-05 -8.4668397903e-05
          6647777849 -1.0669231415e-05 -1.0967254639e-05 -6647777849 4.1170511395e-05 1.6093254089e-06
          -2.4080276489e-05 1.569930464e-05 -1.7046928406e-05 6647777849 1.1280909936e-05 -1.0430812836e-05
          -6647777849 1.2516975403e-06 0.00010964181274 -3.4809112549e-05 -4.1246414185e-05 4.1779596359e-05
          6647777849 3.2305717468e-05 1.095674484e-05 -6647777849 -6.209500134e-05 -8.661672473e-05
          3.4809112549e-05 5.9101730585e-05 5.8205798268e-05 6647777849 -3.1776726246e-05 1.1602416635e-05
        </DataArray>
        <DataArray type="Int32" Name="ID" format="ascii" RangeMin="0" RangeMax="11">
          0 1 2 3 4 5
          6 7 8 9 10 11
        </DataArray>
        <DataArray type="Int32" Name="Proc_Num" format="ascii" RangeMin="0" RangeMax="0">
          0 0 0 0 0 0
          0 0 0 0 0 0
        </DataArray>
        <DataArray type="Float64" Name="Velocity" NumberOfComponents="3" format="ascii" RangeMin="0" RangeMax="2012.3474798">
          0 0 0 -1000 -200.62816502 -200.62816502
          -2000 2.9470147832e-11 -3.6700706836e-11 0 157.38865791 0
          -1000 358.01682293 -200.62816502 -2000 157.38865791 -2.6007473102e-11
          0 0 157.38865791 -1000 -200.62816502 358.01682293
          -2000 -2.7854491826e-11 157.38865791 0 157.38865791 157.38865791
          -1000 358.01682293 358.01682293 -2000 157.38865791 157.38865791
        </DataArray>
        <DataArray type="Float64" Name="Weighted_Volume" format="ascii" RangeMin="12" RangeMax="20">
          12 20 12 12 20 12
          12 20 12 12 20 12
        </DataArray>
      </PointData>
      <CellData>
      </CellData>
      <Points>
        <DataArray type="Float64" Name="Points" NumberOfComponents="3" format="ascii" RangeMin="0.70710678119" RangeMax="1.2247448714">
          -1 -0.5 -0.5 0 -0.5 -0.5
          1 -0.5 -0.5 -1 0.5 -0.5
          0 0.5 -0.5 1 0.5 -0.5
          -1 -0.5 0.5 0 -0.5 0.5
          1 -0.5 0.5 -1 0.5 0.5
          0 0.5 0.5 1 0.5 0.5
        </DataArray>
      </Points>
      <Cells>
        <DataArray type="Int64" Name="connectivity" format="ascii" RangeMin="0" RangeMax="11">
          0 1 2 3 4 5
          6 7 8 9 10 11
        </DataArray>
        <DataArray type="Int64" Name="offsets" format="ascii" RangeMin="1" RangeMax="12">
          1 2 3 4 5 6
          7 8 9 10 11 12
        </DataArray>
        <DataArray type="UInt8" Name="types" format="ascii" RangeMin="1" RangeMax="1">
          1 1 1 1 1 1
          1 1 1 1 1 1
        </DataArray>
      </Cells>
    </Piece>
  </UnstructuredGrid>
</VTKFile>
