<?xml version="1.0"?>
<VTKFile type="UnstructuredGrid" version="0.1" byte_order="LittleEndian" compressor="vtkZLibDataCompressor">
  <UnstructuredGrid>
    <Piece NumberOfPoints="12" NumberOfCells="12">
      <PointData>
        <DataArray type="Float64" Name="Dilatation" format="ascii" RangeMin="-0.0094179332782" RangeMax="-0.0085364776772">
          -0.0094179332782 -0.0085364776772 -0.0094179332782 -0.0094179332782 -0.0085364776772 -0.0094179332782
          -0.0094179332782 -0.0085364776772 -0.0094179332782 -0.0094179332782 -0.0085364776772 -0.0094179332782
        </DataArray>
        <DataArray type="Float64" Name="Displacement" NumberOfComponents="3" format="ascii" RangeMin="0" RangeMax="0.040262584227">
          0 0 0 -0.02 -0.003927304182 -0.003927304182
          -0.04 -1.9560653433e-16 2.8522457293e-16 0 0.0032462046028 0
          -0.02 0.0071735087848 -0.003927304182 -0.04 0.0032462046028 -6.5177208931e-17
          0 0 0.0032462046028 -0.02 -0.003927304182 0.0071735087848
          -0.04 1.2975684462e-16 0.0032462046028 0 0.0032462046028 0.0032462046028
          -0.02 0.0071735087848 0.0071735087848 -0.04 0.0032462046028 0.0032462046028
        </DataArray>
        <DataArray type="Float64" Name="Force_Density" NumberOfComponents="3" format="ascii" RangeMin="4.7042663806e-05" RangeMax="5337103762.3">
          -5337103762.3 1.8790364265e-05 8.6203217506e-05 8.2761049271e-05 -2.6077032089e-05 -2.6673078537e-05
          5337103762.3 2.4914741516e-05 2.5808811188e-05 -5337103762.3 1.208926551e-05 3.1471252441e-05
          1.9907951355e-05 -2.9876828194e-05 3.0398368835e-05 5337103762.3 -7.6688259611e-05 5.1379203796e-05
          -5337103762.3 3.1352043152e-05 -3.1881965697e-05 7.8082084656e-05 3.0279159546e-05 -5.4737087339e-05
          5337103762.3 -3.5345554352e-05 -7.6129869314e-05 -5337103762.3 -6.1541795731e-05 -8.6503103375e-05
          -4.768371582e-07 5.1625072956e-05 5.1164999604e-05 5337103762.3 6.0587190092e-05 -3.4924596548e-07
        </DataArray>
        <DataArray type="Int32" Name="ID" format="ascii" RangeMin="0" RangeMax="11">
          0 1 2 3 4 5
          6 7 8 9 10 11
        </DataArray>
        <DataArray type="Int32" Name="Proc_Num" format="ascii" RangeMin="0" RangeMax="0">
          0 0 0 0 0 0
          0 0 0 0 0 0
        </DataArray>
        <DataArray type="Float64" Name="Velocity" NumberOfComponents="3" format="ascii" RangeMin="0" RangeMax="2012.6361426">
          0 0 0 -1000 -199.04438643 -199.04438643
          -2000 -7.2851009157e-11 1.4302276442e-10 0 159.22349489 0
          -1000 358.26788132 -199.04438643 -2000 159.22349489 5.8383403637e-11
          0 0 159.22349489 -1000 -199.04438643 358.26788132
          -2000 3.301596331e-11 159.22349489 0 159.22349489 159.22349489
          -1000 358.26788132 358.26788132 -2000 159.22349489 159.22349489
        </DataArray>
        <DataArray type="Float64" Name="Weighted_Volume" format="ascii" RangeMin="12" RangeMax="20">
          12 20 12 12 20 12
          12 20 12 12 20 12
        </DataArray>
      </PointData>
      <CellData>
      </CellData>
      <Points>
        <DataArray type="Float64" Name="Points" NumberOfComponents="3" format="ascii" RangeMin="0.70710678119" RangeMax="1.2247448714">
          -1 -0.5 -0.5 0 -0.5 -0.5
          1 -0.5 -0.5 -1 0.5 -0.5
          0 0.5 -0.5 1 0.5 -0.5
          -1 -0.5 0.5 0 -0.5 0.5
          1 -0.5 0.5 -1 0.5 0.5
          0 0.5 0.5 1 0.5 0.5
        </DataArray>
      </Points>
      <Cells>
        <DataArray type="Int64" Name="connectivity" format="ascii" RangeMin="0" RangeMax="11">
          0 1 2 3 4 5
          6 7 8 9 10 11
        </DataArray>
        <DataArray type="Int64" Name="offsets" format="ascii" RangeMin="1" RangeMax="12">
          1 2 3 4 5 6
          7 8 9 10 11 12
        </DataArray>
        <DataArray type="UInt8" Name="types" format="ascii" RangeMin="1" RangeMax="1">
          1 1 1 1 1 1
          1 1 1 1 1 1
        </DataArray>
      </Cells>
    </Piece>
  </UnstructuredGrid>
</VTKFile>
