<?xml version="1.0"?>
<VTKFile type="UnstructuredGrid" version="0.1" byte_order="LittleEndian" compressor="vtkZLibDataCompressor">
  <UnstructuredGrid>
    <Piece NumberOfPoints="12" NumberOfCells="12">
      <PointData>
        <DataArray type="Float64" Name="Dilatation" format="ascii" RangeMin="-0.012907157289" RangeMax="-0.011626102145">
          -0.012907157289 -0.011626102145 -0.012907157289 -0.012907157289 -0.011626102145 -0.012907157289
          -0.012907157289 -0.011626102145 -0.012907157289 -0.012907157289 -0.011626102145 -0.012907157289
        </DataArray>
        <DataArray type="Float64" Name="Displacement" NumberOfComponents="3" format="ascii" RangeMin="0" RangeMax="0.055355121323">
          0 0 0 -0.0275 -0.0054320354894 -0.0054320354894
          -0.055 -1.4413639991e-16 -8.961449113e-17 0 0.004426593308 0
          -0.0275 0.0098586287974 -0.0054320354894 -0.055 0.004426593308 -2.0913053306e-16
          0 0 0.004426593308 -0.0275 -0.0054320354894 0.0098586287974
          -0.055 -9.3653195089e-17 0.004426593308 0 0.004426593308 0.004426593308
          -0.0275 0.0098586287974 0.0098586287974 -0.055 0.004426593308 0.004426593308
        </DataArray>
        <DataArray type="Float64" Name="Force_Density" NumberOfComponents="3" format="ascii" RangeMin="2.1936189643e-05" RangeMax="7299572425.1">
          -7299572425.1 -1.7881393433e-06 2.3633241653e-05 -1.4275312424e-05 1.2129545212e-05 1.1414289474e-05
          7299572425.1 2.259016037e-05 2.3305416107e-05 -7299572425.1 -4.613911733e-05 2.3722648621e-05
          5.9008598328e-05 7.2175636888e-05 -4.8995018005e-05 7299572425.1 -2.2324267775e-05 4.6789646149e-05
          -7299572425.1 2.2232532501e-05 -4.7268345952e-05 -5.8531761169e-05 -7.2479248047e-05 4.9269758165e-05
          7299572425.1 4.6610832214e-05 -2.3193191737e-05 -7299572425.1 -2.3057684302e-05 -2.2754073143e-05
          1.4305114746e-05 -1.1537224054e-05 -1.2762844563e-05 7299572425.1 1.8142163754e-06 -2.3119151592e-05
        </DataArray>
        <DataArray type="Int32" Name="ID" format="ascii" RangeMin="0" RangeMax="11">
          0 1 2 3 4 5
          6 7 8 9 10 11
        </DataArray>
        <DataArray type="Int32" Name="Proc_Num" format="ascii" RangeMin="0" RangeMax="0">
          0 0 0 0 0 0
          0 0 0 0 0 0
        </DataArray>
        <DataArray type="Float64" Name="Velocity" NumberOfComponents="3" format="ascii" RangeMin="0" RangeMax="2012.2019492">
          0 0 0 -1000 -201.43201713 -201.43201713
          -2000 -1.3110196722e-10 -1.5745355871e-11 0 156.45555946 0
          -1000 357.88757659 -201.43201713 -2000 156.45555946 -1.1178679249e-10
          0 0 156.45555946 -1000 -201.43201713 357.88757659
          -2000 -3.4348974373e-11 156.45555946 0 156.45555946 156.45555946
          -1000 357.88757659 357.88757659 -2000 156.45555946 156.45555946
        </DataArray>
        <DataArray type="Float64" Name="Weighted_Volume" format="ascii" RangeMin="12" RangeMax="20">
          12 20 12 12 20 12
          12 20 12 12 20 12
        </DataArray>
      </PointData>
      <CellData>
      </CellData>
      <Points>
        <DataArray type="Float64" Name="Points" NumberOfComponents="3" format="ascii" RangeMin="0.70710678119" RangeMax="1.2247448714">
          -1 -0.5 -0.5 0 -0.5 -0.5
          1 -0.5 -0.5 -1 0.5 -0.5
          0 0.5 -0.5 1 0.5 -0.5
          -1 -0.5 0.5 0 -0.5 0.5
          1 -0.5 0.5 -1 0.5 0.5
          0 0.5 0.5 1 0.5 0.5
        </DataArray>
      </Points>
      <Cells>
        <DataArray type="Int64" Name="connectivity" format="ascii" RangeMin="0" RangeMax="11">
          0 1 2 3 4 5
          6 7 8 9 10 11
        </DataArray>
        <DataArray type="Int64" Name="offsets" format="ascii" RangeMin="1" RangeMax="12">
          1 2 3 4 5 6
          7 8 9 10 11 12
        </DataArray>
        <DataArray type="UInt8" Name="types" format="ascii" RangeMin="1" RangeMax="1">
          1 1 1 1 1 1
          1 1 1 1 1 1
        </DataArray>
      </Cells>
    </Piece>
  </UnstructuredGrid>
</VTKFile>
