<?xml version="1.0"?>
<VTKFile type="UnstructuredGrid" version="0.1" byte_order="LittleEndian" compressor="vtkZLibDataCompressor">
  <UnstructuredGrid>
    <Piece NumberOfPoints="12" NumberOfCells="12">
      <PointData>
        <DataArray type="Float64" Name="Displacement" NumberOfComponents="3" format="ascii" RangeMin="0" RangeMax="0.05064624795">
          0 0 0 -0.0225 0.0057830653438 0.0057830653438
          -0.045 -5.7578534467e-17 -3.0408897164e-19 0 0.016432322285 0
          -0.0225 0.010649256941 0.0057830653438 -0.045 0.016432322285 -6.152094557e-17
          0 0 0.016432322285 -0.0225 0.0057830653438 0.010649256941
          -0.045 1.2698943166e-16 0.016432322285 0 0.016432322285 0.016432322285
          -0.0225 0.010649256941 0.010649256941 -0.045 0.016432322285 0.016432322285
        </DataArray>
        <DataArray type="Float64" Name="Velocity" NumberOfComponents="3" format="ascii" RangeMin="0" RangeMax="0">
          0 0 0 0 0 0
          0 0 0 0 0 0
          0 0 0 0 0 0
          0 0 0 0 0 0
          0 0 0 0 0 0
          0 0 0 0 0 0
        </DataArray>
        <DataArray type="Float64" Name="Force_Density" NumberOfComponents="3" format="ascii" RangeMin="2.6745080713e-05" RangeMax="12115406586">
          -12115406586 -5.3644180298e-07 -6.5565109253e-07 -4.0099024773e-05 -1.6221776605e-05 9.2349946499e-06
          12115406586 3.1709671021e-05 1.6927719116e-05 -12115406586 -1.7293961719e-05 -1.1682510376e-05
          -1.0550022125e-05 -1.6971025616e-05 4.2378902435e-05 12115406586 2.6325395079e-05 -1.2040138245e-05
          -12115406586 1.8835067749e-05 1.1620610481e-05 1.0222196579e-05 1.6987323761e-05 -4.1937688366e-05
          12115406586 -1.1801719666e-05 1.1752659707e-05 -12115406586 -4.3677794195e-05 -2.8571742035e-05
          -2.5153160095e-05 1.1520460248e-06 -9.0161338449e-06 12115406586 1.1311843991e-05 1.1805444956e-05
        </DataArray>
        <DataArray type="Int32" Name="ID" format="ascii" RangeMin="0" RangeMax="11">
          0 1 2 3 4 5
          6 7 8 9 10 11
        </DataArray>
        <DataArray type="Int32" Name="Proc_Num" format="ascii" RangeMin="0" RangeMax="0">
          0 0 0 0 0 0
          0 0 0 0 0 0
        </DataArray>
        <DataArray type="Float64" Name="Damage" format="ascii" RangeMin="0" RangeMax="0">
          0 0 0 0 0 0
          0 0 0 0 0 0
        </DataArray>
        <DataArray type="Float64" Name="Dilatation" format="ascii" RangeMin="-0.025566256048" RangeMax="-0.011005094679">
          -0.025566256048 -0.011005094679 -0.025566256048 -0.025566256048 -0.011005094679 -0.025566256048
          -0.025566256048 -0.011005094679 -0.025566256048 -0.025566256048 -0.011005094679 -0.025566256048
        </DataArray>
        <DataArray type="Float64" Name="Weighted_Volume" format="ascii" RangeMin="20" RangeMax="32">
          32 20 32 32 20 32
          32 20 32 32 20 32
        </DataArray>
      </PointData>
      <CellData>
      </CellData>
      <Points>
        <DataArray type="Float64" Name="Points" NumberOfComponents="3" format="ascii" RangeMin="0.70710678119" RangeMax="1.2247448714">
          -1 -0.5 -0.5 0 -0.5 -0.5
          1 -0.5 -0.5 -1 0.5 -0.5
          0 0.5 -0.5 1 0.5 -0.5
          -1 -0.5 0.5 0 -0.5 0.5
          1 -0.5 0.5 -1 0.5 0.5
          0 0.5 0.5 1 0.5 0.5
        </DataArray>
      </Points>
      <Cells>
        <DataArray type="Int32" Name="connectivity" format="ascii" RangeMin="0" RangeMax="11">
          0 1 2 3 4 5
          6 7 8 9 10 11
        </DataArray>
        <DataArray type="Int32" Name="offsets" format="ascii" RangeMin="1" RangeMax="12">
          1 2 3 4 5 6
          7 8 9 10 11 12
        </DataArray>
        <DataArray type="UInt8" Name="types" format="ascii" RangeMin="1" RangeMax="1">
          1 1 1 1 1 1
          1 1 1 1 1 1
        </DataArray>
      </Cells>
    </Piece>
  </UnstructuredGrid>
</VTKFile>
