<?xml version="1.0"?>
<VTKFile type="UnstructuredGrid" version="0.1" byte_order="LittleEndian" compressor="vtkZLibDataCompressor">
  <UnstructuredGrid>
    <Piece NumberOfPoints="12" NumberOfCells="12">
      <PointData>
        <DataArray type="Float64" Name="Dilatation" format="ascii" RangeMin="-0.0047299580856" RangeMax="-0.004322088178">
          -0.0047299580856 -0.004322088178 -0.0047299580856 -0.0047299580856 -0.004322088178 -0.0047299580856
          -0.0047299580856 -0.004322088178 -0.0047299580856 -0.0047299580856 -0.004322088178 -0.0047299580856
        </DataArray>
        <DataArray type="Float64" Name="Displacement" NumberOfComponents="3" format="ascii" RangeMin="0" RangeMax="0.020134119111">
          0 0 0 -0.01 -0.0019484886516 -0.0019484886516
          -0.02 -5.3058247065e-17 -8.207731839e-17 0 0.0016405414287 0
          -0.01 0.0035890300803 -0.0019484886516 -0.02 0.0016405414287 -3.1070753517e-17
          0 0 0.0016405414287 -0.01 -0.0019484886516 0.0035890300803
          -0.02 -1.5806973785e-16 0.0016405414287 0 0.0016405414287 0.0016405414287
          -0.01 0.0035890300803 0.0035890300803 -0.02 0.0016405414287 0.0016405414287
        </DataArray>
        <DataArray type="Float64" Name="Force_Density" NumberOfComponents="3" format="ascii" RangeMin="4.0354561161e-05" RangeMax="2687427942.7">
          -2687427942.7 -8.1807374954e-06 -8.2701444626e-06 5.9023499489e-05 -4.9695372581e-05 -7.4580311775e-05
          2687427942.7 -5.9247016907e-05 -5.9008598328e-05 -2687427942.7 3.9286038373e-05 -3.8802623749e-05
          1.9788742065e-05 1.1419760995e-05 6.377696991e-05 2687427942.7 8.2249171101e-06 3.4838914871e-05
          -2687427942.7 4.5895576477e-06 6.3664454501e-05 -2.4437904358e-05 -7.152557373e-06 3.1306874007e-05
          2687427942.7 1.1444091797e-05 -1.1853815522e-05 -2687427942.7 -5.8828853071e-05 -1.6200123355e-05
          -5.4836273193e-05 6.937654689e-05 4.4093932956e-05 2687427942.7 3.8909027353e-05 -2.9041199014e-05
        </DataArray>
        <DataArray type="Int32" Name="ID" format="ascii" RangeMin="0" RangeMax="11">
          0 1 2 3 4 5
          6 7 8 9 10 11
        </DataArray>
        <DataArray type="Int32" Name="Proc_Num" format="ascii" RangeMin="0" RangeMax="0">
          0 0 0 0 0 0
          0 0 0 0 0 0
        </DataArray>
        <DataArray type="Float64" Name="Velocity" NumberOfComponents="3" format="ascii" RangeMin="0" RangeMax="2013.2035939">
          0 0 0 -1000 -195.96821488 -195.96821488
          -2000 -9.4434282304e-11 3.0567769254e-11 0 162.77086706 0
          -1000 358.73908194 -195.96821488 -2000 162.77086706 -1.1115712253e-10
          0 0 162.77086706 -1000 -195.96821488 358.73908194
          -2000 -2.2897105468e-11 162.77086706 0 162.77086706 162.77086706
          -1000 358.73908194 358.73908194 -2000 162.77086706 162.77086706
        </DataArray>
        <DataArray type="Float64" Name="Weighted_Volume" format="ascii" RangeMin="12" RangeMax="20">
          12 20 12 12 20 12
          12 20 12 12 20 12
        </DataArray>
      </PointData>
      <CellData>
      </CellData>
      <Points>
        <DataArray type="Float64" Name="Points" NumberOfComponents="3" format="ascii" RangeMin="0.70710678119" RangeMax="1.2247448714">
          -1 -0.5 -0.5 0 -0.5 -0.5
          1 -0.5 -0.5 -1 0.5 -0.5
          0 0.5 -0.5 1 0.5 -0.5
          -1 -0.5 0.5 0 -0.5 0.5
          1 -0.5 0.5 -1 0.5 0.5
          0 0.5 0.5 1 0.5 0.5
        </DataArray>
      </Points>
      <Cells>
        <DataArray type="Int64" Name="connectivity" format="ascii" RangeMin="0" RangeMax="11">
          0 1 2 3 4 5
          6 7 8 9 10 11
        </DataArray>
        <DataArray type="Int64" Name="offsets" format="ascii" RangeMin="1" RangeMax="12">
          1 2 3 4 5 6
          7 8 9 10 11 12
        </DataArray>
        <DataArray type="UInt8" Name="types" format="ascii" RangeMin="1" RangeMax="1">
          1 1 1 1 1 1
          1 1 1 1 1 1
        </DataArray>
      </Cells>
    </Piece>
  </UnstructuredGrid>
</VTKFile>
