<?xml version="1.0"?>
<VTKFile type="UnstructuredGrid" version="0.1" byte_order="LittleEndian" compressor="vtkZLibDataCompressor">
  <UnstructuredGrid>
    <Piece NumberOfPoints="12" NumberOfCells="12">
      <PointData>
        <DataArray type="Float64" Name="Dilatation" format="ascii" RangeMin="-0.003551455308" RangeMax="-0.0032516331889">
          -0.003551455308 -0.0032516331889 -0.003551455308 -0.003551455308 -0.0032516331889 -0.003551455308
          -0.003551455308 -0.0032516331889 -0.003551455308 -0.003551455308 -0.0032516331889 -0.003551455308
        </DataArray>
        <DataArray type="Float64" Name="Displacement" NumberOfComponents="3" format="ascii" RangeMin="0" RangeMax="0.015101112816">
          0 0 0 -0.0075 -0.0014585681144 -0.0014585681144
          -0.015 1.8302745869e-16 -1.5849674153e-16 0 0.001233614261 0
          -0.0075 0.0026921823754 -0.0014585681144 -0.015 0.001233614261 2.4682205282e-16
          0 0 0.001233614261 -0.0075 -0.0014585681144 0.0026921823754
          -0.015 -1.0082697418e-16 0.001233614261 0 0.001233614261 0.001233614261
          -0.0075 0.0026921823754 0.0026921823754 -0.015 0.001233614261 0.001233614261
        </DataArray>
        <DataArray type="Float64" Name="Force_Density" NumberOfComponents="3" format="ascii" RangeMin="4.6836398441e-05" RangeMax="2019109505.1">
          -2019109505.1 6.9633126259e-05 1.6763806343e-06 4.1529536247e-05 6.5326690674e-05 4.1157007217e-05
          2019109505.1 1.4558434486e-05 -2.9012560844e-05 -2019109505.1 -1.4558172552e-05 1.4126300812e-05
          -2.732872963e-05 -4.5197026338e-05 -4.7087669373e-06 2019109505.1 -3.8947583222e-05 1.434981823e-05
          -2019109505.1 1.4573335648e-05 2.8717506211e-05 -1.6987323761e-05 4.0829181671e-05 -4.0541577619e-05
          2019109505.1 -5.5730342865e-06 4.8627903047e-05 -2019109505.1 -4.5143417083e-05 -4.4909538701e-05
          1.6927719116e-05 -4.0953746065e-05 -1.5162164345e-05 2019109505.1 -1.4526536688e-05 -1.4362856746e-05
        </DataArray>
        <DataArray type="Int32" Name="ID" format="ascii" RangeMin="0" RangeMax="11">
          0 1 2 3 4 5
          6 7 8 9 10 11
        </DataArray>
        <DataArray type="Int32" Name="Proc_Num" format="ascii" RangeMin="0" RangeMax="0">
          0 0 0 0 0 0
          0 0 0 0 0 0
        </DataArray>
        <DataArray type="Float64" Name="Velocity" NumberOfComponents="3" format="ascii" RangeMin="0" RangeMax="2013.3433448">
          0 0 0 -1000 -195.21734727 -195.21734727
          -2000 2.352640465e-11 -1.0825272971e-10 0 163.63285757 0
          -1000 358.85020484 -195.21734727 -2000 163.63285757 7.1460001089e-11
          0 0 163.63285757 -1000 -195.21734727 358.85020484
          -2000 -1.4749668323e-10 163.63285757 0 163.63285757 163.63285757
          -1000 358.85020484 358.85020484 -2000 163.63285757 163.63285757
        </DataArray>
        <DataArray type="Float64" Name="Weighted_Volume" format="ascii" RangeMin="12" RangeMax="20">
          12 20 12 12 20 12
          12 20 12 12 20 12
        </DataArray>
      </PointData>
      <CellData>
      </CellData>
      <Points>
        <DataArray type="Float64" Name="Points" NumberOfComponents="3" format="ascii" RangeMin="0.70710678119" RangeMax="1.2247448714">
          -1 -0.5 -0.5 0 -0.5 -0.5
          1 -0.5 -0.5 -1 0.5 -0.5
          0 0.5 -0.5 1 0.5 -0.5
          -1 -0.5 0.5 0 -0.5 0.5
          1 -0.5 0.5 -1 0.5 0.5
          0 0.5 0.5 1 0.5 0.5
        </DataArray>
      </Points>
      <Cells>
        <DataArray type="Int64" Name="connectivity" format="ascii" RangeMin="0" RangeMax="11">
          0 1 2 3 4 5
          6 7 8 9 10 11
        </DataArray>
        <DataArray type="Int64" Name="offsets" format="ascii" RangeMin="1" RangeMax="12">
          1 2 3 4 5 6
          7 8 9 10 11 12
        </DataArray>
        <DataArray type="UInt8" Name="types" format="ascii" RangeMin="1" RangeMax="1">
          1 1 1 1 1 1
          1 1 1 1 1 1
        </DataArray>
      </Cells>
    </Piece>
  </UnstructuredGrid>
</VTKFile>
